n -t * -s 0  -x 27 -y 72 -Z 0 -z 35  -v circle -c black
n -t * -s 1  -x 512 -y 475 -Z 0 -z 35  -v circle -c black
n -t * -s 2  -x 200 -y 194 -Z 0 -z 35  -v circle -c black
n -t * -s 3  -x 74 -y 219 -Z 0 -z 35  -v circle -c black
n -t * -s 4  -x 250 -y 320 -Z 0 -z 35  -v circle -c black
n -t * -s 5  -x 312 -y 164 -Z 0 -z 35  -v circle -c black
n -t * -s 6  -x 473 -y 265 -Z 0 -z 35  -v circle -c black
n -t * -s 7  -x 492 -y 4 -Z 0 -z 35  -v circle -c black
n -t * -s 8  -x 459 -y 63 -Z 0 -z 35  -v circle -c black
n -t * -s 9  -x 610 -y 288 -Z 0 -z 35  -v circle -c black
n -t * -s 10  -x 212 -y 108 -Z 0 -z 35  -v circle -c black
n -t * -s 11  -x 563 -y 447 -Z 0 -z 35  -v circle -c black
n -t * -s 12  -x 496 -y 438 -Z 0 -z 35  -v circle -c black
n -t * -s 13  -x 485 -y 105 -Z 0 -z 35  -v circle -c black
n -t * -s 14  -x 363 -y 449 -Z 0 -z 35  -v circle -c black
n -t * -s 15  -x 500 -y 179 -Z 0 -z 35  -v circle -c black
n -t * -s 16  -x 400 -y 498 -Z 0 -z 35  -v circle -c black
n -t * -s 17  -x 278 -y 285 -Z 0 -z 35  -v circle -c black
n -t * -s 18  -x 428 -y 163 -Z 0 -z 35  -v circle -c black
n -t * -s 19  -x 610 -y 605 -Z 0 -z 35  -v circle -c black
n -t * -s 20  -x 114 -y 102 -Z 0 -z 35  -v circle -c black
n -t * -s 21  -x 473 -y 265 -Z 0 -z 35  -v circle -c black
n -t * -s 22  -x 241 -y 414 -Z 0 -z 35  -v circle -c black
n -t * -s 23  -x 200 -y 194 -Z 0 -z 35  -v circle -c black
n -t * -s 24  -x 492 -y 4 -Z 0 -z 35  -v circle -c black
n -t * -s 25  -x 459 -y 63 -Z 0 -z 35  -v circle -c black
n -t * -s 26  -x 418 -y 659 -Z 0 -z 35  -v circle -c black
n -t * -s 27  -x 258 -y 240 -Z 0 -z 35  -v circle -c black
n -t * -s 28  -x 664 -y 47 -Z 0 -z 35  -v circle -c black
n -t * -s 29  -x 304 -y 412 -Z 0 -z 35  -v circle -c black
V -t * -v 1.0a5 -a 0
W -t * -x 900 -y 550
A -t * -n 1 -p 0 -o 0x7fffffff -c 30 -a 1
A -t * -h 1 -m 1073741823 -s 0
n -t 0.000000 -s 16 -x 400.000000 -y 498.000000 -U 4.869761 -V -8.734153 -T 31.829075
d -t 0.000000000 -s 0 -d -1 -p cbr -e 532 -c 2 -a 0 -i 0 -k RTR
d -t 0.000000000 -s 3 -d -1 -p cbr -e 532 -c 2 -a 0 -i 1 -k RTR
d -t 0.000000000 -s 1 -d -1 -p cbr -e 532 -c 2 -a 0 -i 2 -k RTR
+ -t 0.000169789 -s 0 -d -1 -p OLSR -e 48 -c 2 -a 0 -i 3 -k RTR 
- -t 0.000169789 -s 0 -d -1 -p OLSR -e 48 -c 2 -a 0 -i 3 -k RTR
h -t 0.000169789 -s 0 -d -1 -p OLSR -e 48 -c 2 -a 0 -i 3 -k RTR
r -t 0.001698095 -s 20 -d -1 -p OLSR -e 48 -c 2 -a 0 -i 3 -k RTR
r -t 0.001698303 -s 3 -d -1 -p OLSR -e 48 -c 2 -a 0 -i 3 -k RTR
r -t 0.001698417 -s 10 -d -1 -p OLSR -e 48 -c 2 -a 0 -i 3 -k RTR
r -t 0.001698494 -s 2 -d -1 -p OLSR -e 48 -c 2 -a 0 -i 3 -k RTR
r -t 0.001698494 -s 23 -d -1 -p OLSR -e 48 -c 2 -a 0 -i 3 -k RTR
+ -t 0.044061336 -s 1 -d -1 -p OLSR -e 48 -c 2 -a 0 -i 4 -k RTR 
- -t 0.044061336 -s 1 -d -1 -p OLSR -e 48 -c 2 -a 0 -i 4 -k RTR
h -t 0.044061336 -s 1 -d -1 -p OLSR -e 48 -c 2 -a 0 -i 4 -k RTR
r -t 0.045189470 -s 12 -d -1 -p OLSR -e 48 -c 2 -a 0 -i 4 -k RTR
r -t 0.045189530 -s 11 -d -1 -p OLSR -e 48 -c 2 -a 0 -i 4 -k RTR
r -t 0.045189716 -s 16 -d -1 -p OLSR -e 48 -c 2 -a 0 -i 4 -k RTR
r -t 0.045189840 -s 14 -d -1 -p OLSR -e 48 -c 2 -a 0 -i 4 -k RTR
r -t 0.045189878 -s 19 -d -1 -p OLSR -e 48 -c 2 -a 0 -i 4 -k RTR
r -t 0.045190024 -s 26 -d -1 -p OLSR -e 48 -c 2 -a 0 -i 4 -k RTR
r -t 0.045190039 -s 9 -d -1 -p OLSR -e 48 -c 2 -a 0 -i 4 -k RTR
r -t 0.045190048 -s 21 -d -1 -p OLSR -e 48 -c 2 -a 0 -i 4 -k RTR
r -t 0.045190048 -s 6 -d -1 -p OLSR -e 48 -c 2 -a 0 -i 4 -k RTR
r -t 0.045190060 -s 29 -d -1 -p OLSR -e 48 -c 2 -a 0 -i 4 -k RTR
+ -t 0.045678458 -s 22 -d -1 -p OLSR -e 48 -c 2 -a 0 -i 5 -k RTR 
- -t 0.045678458 -s 22 -d -1 -p OLSR -e 48 -c 2 -a 0 -i 5 -k RTR
h -t 0.045678458 -s 22 -d -1 -p OLSR -e 48 -c 2 -a 0 -i 5 -k RTR
r -t 0.047066668 -s 29 -d -1 -p OLSR -e 48 -c 2 -a 0 -i 5 -k RTR
r -t 0.047066773 -s 4 -d -1 -p OLSR -e 48 -c 2 -a 0 -i 5 -k RTR
r -t 0.047066881 -s 14 -d -1 -p OLSR -e 48 -c 2 -a 0 -i 5 -k RTR
r -t 0.047066905 -s 17 -d -1 -p OLSR -e 48 -c 2 -a 0 -i 5 -k RTR
r -t 0.047067041 -s 27 -d -1 -p OLSR -e 48 -c 2 -a 0 -i 5 -k RTR
r -t 0.047067058 -s 16 -d -1 -p OLSR -e 48 -c 2 -a 0 -i 5 -k RTR
r -t 0.047067204 -s 23 -d -1 -p OLSR -e 48 -c 2 -a 0 -i 5 -k RTR
r -t 0.047067204 -s 2 -d -1 -p OLSR -e 48 -c 2 -a 0 -i 5 -k RTR
+ -t 0.054599236 -s 12 -d -1 -p OLSR -e 48 -c 2 -a 0 -i 6 -k RTR 
- -t 0.054599236 -s 12 -d -1 -p OLSR -e 48 -c 2 -a 0 -i 6 -k RTR
h -t 0.054599236 -s 12 -d -1 -p OLSR -e 48 -c 2 -a 0 -i 6 -k RTR
r -t 0.055667370 -s 1 -d -1 -p OLSR -e 48 -c 2 -a 0 -i 6 -k RTR
r -t 0.055667461 -s 11 -d -1 -p OLSR -e 48 -c 2 -a 0 -i 6 -k RTR
r -t 0.055667612 -s 16 -d -1 -p OLSR -e 48 -c 2 -a 0 -i 6 -k RTR
r -t 0.055667681 -s 14 -d -1 -p OLSR -e 48 -c 2 -a 0 -i 6 -k RTR
r -t 0.055667818 -s 21 -d -1 -p OLSR -e 48 -c 2 -a 0 -i 6 -k RTR
r -t 0.055667818 -s 6 -d -1 -p OLSR -e 48 -c 2 -a 0 -i 6 -k RTR
r -t 0.055667864 -s 9 -d -1 -p OLSR -e 48 -c 2 -a 0 -i 6 -k RTR
r -t 0.055667882 -s 29 -d -1 -p OLSR -e 48 -c 2 -a 0 -i 6 -k RTR
r -t 0.055667910 -s 19 -d -1 -p OLSR -e 48 -c 2 -a 0 -i 6 -k RTR
r -t 0.055668017 -s 26 -d -1 -p OLSR -e 48 -c 2 -a 0 -i 6 -k RTR
+ -t 0.056015658 -s 14 -d -1 -p OLSR -e 48 -c 2 -a 0 -i 7 -k RTR 
- -t 0.056015658 -s 14 -d -1 -p OLSR -e 48 -c 2 -a 0 -i 7 -k RTR
h -t 0.056015658 -s 14 -d -1 -p OLSR -e 48 -c 2 -a 0 -i 7 -k RTR
+ -t 0.056904124 -s 5 -d -1 -p OLSR -e 48 -c 2 -a 0 -i 8 -k RTR 
- -t 0.056904124 -s 5 -d -1 -p OLSR -e 48 -c 2 -a 0 -i 8 -k RTR
h -t 0.056904124 -s 5 -d -1 -p OLSR -e 48 -c 2 -a 0 -i 8 -k RTR
r -t 0.057183862 -s 16 -d -1 -p OLSR -e 48 -c 2 -a 0 -i 7 -k RTR
r -t 0.057183890 -s 29 -d -1 -p OLSR -e 48 -c 2 -a 0 -i 7 -k RTR
r -t 0.057184081 -s 22 -d -1 -p OLSR -e 48 -c 2 -a 0 -i 7 -k RTR
r -t 0.057184103 -s 12 -d -1 -p OLSR -e 48 -c 2 -a 0 -i 7 -k RTR
r -t 0.057184162 -s 1 -d -1 -p OLSR -e 48 -c 2 -a 0 -i 7 -k RTR
r -t 0.057184230 -s 4 -d -1 -p OLSR -e 48 -c 2 -a 0 -i 7 -k RTR
r -t 0.057184274 -s 17 -d -1 -p OLSR -e 48 -c 2 -a 0 -i 7 -k RTR
r -t 0.057184325 -s 11 -d -1 -p OLSR -e 48 -c 2 -a 0 -i 7 -k RTR
r -t 0.057184372 -s 6 -d -1 -p OLSR -e 48 -c 2 -a 0 -i 7 -k RTR
r -t 0.057184372 -s 21 -d -1 -p OLSR -e 48 -c 2 -a 0 -i 7 -k RTR
r -t 0.057184381 -s 26 -d -1 -p OLSR -e 48 -c 2 -a 0 -i 7 -k RTR
r -t 0.057184438 -s 27 -d -1 -p OLSR -e 48 -c 2 -a 0 -i 7 -k RTR
r -t 0.058446934 -s 27 -d -1 -p OLSR -e 48 -c 2 -a 0 -i 8 -k RTR
r -t 0.058447005 -s 10 -d -1 -p OLSR -e 48 -c 2 -a 0 -i 8 -k RTR
r -t 0.058447009 -s 23 -d -1 -p OLSR -e 48 -c 2 -a 0 -i 8 -k RTR
r -t 0.058447009 -s 2 -d -1 -p OLSR -e 48 -c 2 -a 0 -i 8 -k RTR
r -t 0.058447010 -s 18 -d -1 -p OLSR -e 48 -c 2 -a 0 -i 8 -k RTR
r -t 0.058447042 -s 17 -d -1 -p OLSR -e 48 -c 2 -a 0 -i 8 -k RTR
r -t 0.058447183 -s 4 -d -1 -p OLSR -e 48 -c 2 -a 0 -i 8 -k RTR
r -t 0.058447217 -s 8 -d -1 -p OLSR -e 48 -c 2 -a 0 -i 8 -k RTR
r -t 0.058447217 -s 25 -d -1 -p OLSR -e 48 -c 2 -a 0 -i 8 -k RTR
r -t 0.058447232 -s 13 -d -1 -p OLSR -e 48 -c 2 -a 0 -i 8 -k RTR
r -t 0.058447252 -s 15 -d -1 -p OLSR -e 48 -c 2 -a 0 -i 8 -k RTR
r -t 0.058447256 -s 6 -d -1 -p OLSR -e 48 -c 2 -a 0 -i 8 -k RTR
r -t 0.058447256 -s 21 -d -1 -p OLSR -e 48 -c 2 -a 0 -i 8 -k RTR
r -t 0.058447315 -s 20 -d -1 -p OLSR -e 48 -c 2 -a 0 -i 8 -k RTR
r -t 0.058447426 -s 7 -d -1 -p OLSR -e 48 -c 2 -a 0 -i 8 -k RTR
r -t 0.058447426 -s 24 -d -1 -p OLSR -e 48 -c 2 -a 0 -i 8 -k RTR
r -t 0.058447437 -s 3 -d -1 -p OLSR -e 48 -c 2 -a 0 -i 8 -k RTR
r -t 0.058447450 -s 29 -d -1 -p OLSR -e 48 -c 2 -a 0 -i 8 -k RTR
+ -t 0.082072703 -s 4 -d -1 -p OLSR -e 48 -c 2 -a 0 -i 9 -k RTR 
- -t 0.082072703 -s 4 -d -1 -p OLSR -e 48 -c 2 -a 0 -i 9 -k RTR
h -t 0.082072703 -s 4 -d -1 -p OLSR -e 48 -c 2 -a 0 -i 9 -k RTR
r -t 0.083340853 -s 17 -d -1 -p OLSR -e 48 -c 2 -a 0 -i 9 -k RTR
r -t 0.083340971 -s 27 -d -1 -p OLSR -e 48 -c 2 -a 0 -i 9 -k RTR
r -t 0.083341018 -s 22 -d -1 -p OLSR -e 48 -c 2 -a 0 -i 9 -k RTR
r -t 0.083341059 -s 29 -d -1 -p OLSR -e 48 -c 2 -a 0 -i 9 -k RTR
r -t 0.083341155 -s 23 -d -1 -p OLSR -e 48 -c 2 -a 0 -i 9 -k RTR
r -t 0.083341155 -s 2 -d -1 -p OLSR -e 48 -c 2 -a 0 -i 9 -k RTR
r -t 0.083341263 -s 5 -d -1 -p OLSR -e 48 -c 2 -a 0 -i 9 -k RTR
r -t 0.083341275 -s 14 -d -1 -p OLSR -e 48 -c 2 -a 0 -i 9 -k RTR
r -t 0.083341380 -s 3 -d -1 -p OLSR -e 48 -c 2 -a 0 -i 9 -k RTR
r -t 0.083341421 -s 10 -d -1 -p OLSR -e 48 -c 2 -a 0 -i 9 -k RTR
r -t 0.083341469 -s 6 -d -1 -p OLSR -e 48 -c 2 -a 0 -i 9 -k RTR
r -t 0.083341469 -s 21 -d -1 -p OLSR -e 48 -c 2 -a 0 -i 9 -k RTR
r -t 0.083341478 -s 16 -d -1 -p OLSR -e 48 -c 2 -a 0 -i 9 -k RTR
r -t 0.083341494 -s 18 -d -1 -p OLSR -e 48 -c 2 -a 0 -i 9 -k RTR
+ -t 0.087402627 -s 6 -d -1 -p OLSR -e 48 -c 2 -a 0 -i 10 -k RTR 
- -t 0.087402627 -s 6 -d -1 -p OLSR -e 48 -c 2 -a 0 -i 10 -k RTR
h -t 0.087402627 -s 6 -d -1 -p OLSR -e 48 -c 2 -a 0 -i 10 -k RTR
r -t 0.088850627 -s 21 -d -1 -p OLSR -e 48 -c 2 -a 0 -i 10 -k RTR
r -t 0.088850927 -s 15 -d -1 -p OLSR -e 48 -c 2 -a 0 -i 10 -k RTR
r -t 0.088850999 -s 18 -d -1 -p OLSR -e 48 -c 2 -a 0 -i 10 -k RTR
r -t 0.088851090 -s 9 -d -1 -p OLSR -e 48 -c 2 -a 0 -i 10 -k RTR
r -t 0.088851162 -s 13 -d -1 -p OLSR -e 48 -c 2 -a 0 -i 10 -k RTR
r -t 0.088851209 -s 12 -d -1 -p OLSR -e 48 -c 2 -a 0 -i 10 -k RTR
r -t 0.088851260 -s 5 -d -1 -p OLSR -e 48 -c 2 -a 0 -i 10 -k RTR
r -t 0.088851280 -s 17 -d -1 -p OLSR -e 48 -c 2 -a 0 -i 10 -k RTR
r -t 0.088851302 -s 25 -d -1 -p OLSR -e 48 -c 2 -a 0 -i 10 -k RTR
r -t 0.088851302 -s 8 -d -1 -p OLSR -e 48 -c 2 -a 0 -i 10 -k RTR
r -t 0.088851304 -s 11 -d -1 -p OLSR -e 48 -c 2 -a 0 -i 10 -k RTR
r -t 0.088851339 -s 1 -d -1 -p OLSR -e 48 -c 2 -a 0 -i 10 -k RTR
r -t 0.088851341 -s 14 -d -1 -p OLSR -e 48 -c 2 -a 0 -i 10 -k RTR
r -t 0.088851348 -s 27 -d -1 -p OLSR -e 48 -c 2 -a 0 -i 10 -k RTR
r -t 0.088851374 -s 29 -d -1 -p OLSR -e 48 -c 2 -a 0 -i 10 -k RTR
r -t 0.088851393 -s 4 -d -1 -p OLSR -e 48 -c 2 -a 0 -i 10 -k RTR
r -t 0.088851438 -s 16 -d -1 -p OLSR -e 48 -c 2 -a 0 -i 10 -k RTR
+ -t 0.120612814 -s 10 -d -1 -p OLSR -e 48 -c 2 -a 0 -i 11 -k RTR 
- -t 0.120612814 -s 10 -d -1 -p OLSR -e 48 -c 2 -a 0 -i 11 -k RTR
h -t 0.120612814 -s 10 -d -1 -p OLSR -e 48 -c 2 -a 0 -i 11 -k RTR
r -t 0.121721103 -s 23 -d -1 -p OLSR -e 48 -c 2 -a 0 -i 11 -k RTR
r -t 0.121721103 -s 2 -d -1 -p OLSR -e 48 -c 2 -a 0 -i 11 -k RTR
r -t 0.121721141 -s 20 -d -1 -p OLSR -e 48 -c 2 -a 0 -i 11 -k RTR
r -t 0.121721196 -s 5 -d -1 -p OLSR -e 48 -c 2 -a 0 -i 11 -k RTR
r -t 0.121721280 -s 27 -d -1 -p OLSR -e 48 -c 2 -a 0 -i 11 -k RTR
r -t 0.121721404 -s 3 -d -1 -p OLSR -e 48 -c 2 -a 0 -i 11 -k RTR
r -t 0.121721442 -s 0 -d -1 -p OLSR -e 48 -c 2 -a 0 -i 11 -k RTR
r -t 0.121721444 -s 17 -d -1 -p OLSR -e 48 -c 2 -a 0 -i 11 -k RTR
r -t 0.121721532 -s 4 -d -1 -p OLSR -e 48 -c 2 -a 0 -i 11 -k RTR
r -t 0.121721557 -s 18 -d -1 -p OLSR -e 48 -c 2 -a 0 -i 11 -k RTR
+ -t 0.156480886 -s 2 -d -1 -p OLSR -e 48 -c 2 -a 0 -i 12 -k RTR 
- -t 0.156480886 -s 2 -d -1 -p OLSR -e 48 -c 2 -a 0 -i 12 -k RTR
h -t 0.156480886 -s 2 -d -1 -p OLSR -e 48 -c 2 -a 0 -i 12 -k RTR
r -t 0.157688886 -s 23 -d -1 -p OLSR -e 48 -c 2 -a 0 -i 12 -k RTR
r -t 0.157689133 -s 27 -d -1 -p OLSR -e 48 -c 2 -a 0 -i 12 -k RTR
r -t 0.157689175 -s 10 -d -1 -p OLSR -e 48 -c 2 -a 0 -i 12 -k RTR
r -t 0.157689272 -s 5 -d -1 -p OLSR -e 48 -c 2 -a 0 -i 12 -k RTR
r -t 0.157689285 -s 17 -d -1 -p OLSR -e 48 -c 2 -a 0 -i 12 -k RTR
r -t 0.157689306 -s 20 -d -1 -p OLSR -e 48 -c 2 -a 0 -i 12 -k RTR
r -t 0.157689314 -s 3 -d -1 -p OLSR -e 48 -c 2 -a 0 -i 12 -k RTR
r -t 0.157689338 -s 4 -d -1 -p OLSR -e 48 -c 2 -a 0 -i 12 -k RTR
r -t 0.157689591 -s 0 -d -1 -p OLSR -e 48 -c 2 -a 0 -i 12 -k RTR
r -t 0.157689632 -s 22 -d -1 -p OLSR -e 48 -c 2 -a 0 -i 12 -k RTR
r -t 0.157689653 -s 18 -d -1 -p OLSR -e 48 -c 2 -a 0 -i 12 -k RTR
r -t 0.157689691 -s 29 -d -1 -p OLSR -e 48 -c 2 -a 0 -i 12 -k RTR
+ -t 0.163658500 -s 19 -d -1 -p OLSR -e 48 -c 2 -a 0 -i 13 -k RTR 
- -t 0.163658500 -s 19 -d -1 -p OLSR -e 48 -c 2 -a 0 -i 13 -k RTR
h -t 0.163658500 -s 19 -d -1 -p OLSR -e 48 -c 2 -a 0 -i 13 -k RTR
r -t 0.164607042 -s 1 -d -1 -p OLSR -e 48 -c 2 -a 0 -i 13 -k RTR
r -t 0.164607049 -s 11 -d -1 -p OLSR -e 48 -c 2 -a 0 -i 13 -k RTR
r -t 0.164607164 -s 26 -d -1 -p OLSR -e 48 -c 2 -a 0 -i 13 -k RTR
r -t 0.164607174 -s 12 -d -1 -p OLSR -e 48 -c 2 -a 0 -i 13 -k RTR
r -t 0.164607285 -s 16 -d -1 -p OLSR -e 48 -c 2 -a 0 -i 13 -k RTR
+ -t 0.174370513 -s 7 -d -1 -p OLSR -e 48 -c 2 -a 0 -i 14 -k RTR 
- -t 0.174370513 -s 7 -d -1 -p OLSR -e 48 -c 2 -a 0 -i 14 -k RTR
h -t 0.174370513 -s 7 -d -1 -p OLSR -e 48 -c 2 -a 0 -i 14 -k RTR
r -t 0.175838513 -s 24 -d -1 -p OLSR -e 48 -c 2 -a 0 -i 14 -k RTR
r -t 0.175838738 -s 25 -d -1 -p OLSR -e 48 -c 2 -a 0 -i 14 -k RTR
r -t 0.175838738 -s 8 -d -1 -p OLSR -e 48 -c 2 -a 0 -i 14 -k RTR
r -t 0.175838850 -s 13 -d -1 -p OLSR -e 48 -c 2 -a 0 -i 14 -k RTR
r -t 0.175839084 -s 18 -d -1 -p OLSR -e 48 -c 2 -a 0 -i 14 -k RTR
r -t 0.175839097 -s 15 -d -1 -p OLSR -e 48 -c 2 -a 0 -i 14 -k RTR
r -t 0.175839104 -s 28 -d -1 -p OLSR -e 48 -c 2 -a 0 -i 14 -k RTR
r -t 0.175839316 -s 5 -d -1 -p OLSR -e 48 -c 2 -a 0 -i 14 -k RTR
+ -t 0.178029290 -s 27 -d -1 -p OLSR -e 48 -c 2 -a 0 -i 15 -k RTR 
- -t 0.178029290 -s 27 -d -1 -p OLSR -e 48 -c 2 -a 0 -i 15 -k RTR
h -t 0.178029290 -s 27 -d -1 -p OLSR -e 48 -c 2 -a 0 -i 15 -k RTR
r -t 0.179397454 -s 17 -d -1 -p OLSR -e 48 -c 2 -a 0 -i 15 -k RTR
r -t 0.179397537 -s 23 -d -1 -p OLSR -e 48 -c 2 -a 0 -i 15 -k RTR
r -t 0.179397537 -s 2 -d -1 -p OLSR -e 48 -c 2 -a 0 -i 15 -k RTR
r -t 0.179397558 -s 4 -d -1 -p OLSR -e 48 -c 2 -a 0 -i 15 -k RTR
r -t 0.179397601 -s 5 -d -1 -p OLSR -e 48 -c 2 -a 0 -i 15 -k RTR
r -t 0.179397756 -s 10 -d -1 -p OLSR -e 48 -c 2 -a 0 -i 15 -k RTR
r -t 0.179397873 -s 22 -d -1 -p OLSR -e 48 -c 2 -a 0 -i 15 -k RTR
r -t 0.179397884 -s 29 -d -1 -p OLSR -e 48 -c 2 -a 0 -i 15 -k RTR
r -t 0.179397907 -s 3 -d -1 -p OLSR -e 48 -c 2 -a 0 -i 15 -k RTR
r -t 0.179397912 -s 18 -d -1 -p OLSR -e 48 -c 2 -a 0 -i 15 -k RTR
r -t 0.179397955 -s 20 -d -1 -p OLSR -e 48 -c 2 -a 0 -i 15 -k RTR
r -t 0.179398012 -s 6 -d -1 -p OLSR -e 48 -c 2 -a 0 -i 15 -k RTR
r -t 0.179398012 -s 21 -d -1 -p OLSR -e 48 -c 2 -a 0 -i 15 -k RTR
r -t 0.179398070 -s 14 -d -1 -p OLSR -e 48 -c 2 -a 0 -i 15 -k RTR
r -t 0.179398122 -s 15 -d -1 -p OLSR -e 48 -c 2 -a 0 -i 15 -k RTR
+ -t 0.203188759 -s 29 -d -1 -p OLSR -e 48 -c 2 -a 0 -i 16 -k RTR 
- -t 0.203188759 -s 29 -d -1 -p OLSR -e 48 -c 2 -a 0 -i 16 -k RTR
h -t 0.203188759 -s 29 -d -1 -p OLSR -e 48 -c 2 -a 0 -i 16 -k RTR
r -t 0.204156969 -s 22 -d -1 -p OLSR -e 48 -c 2 -a 0 -i 16 -k RTR
r -t 0.204156991 -s 14 -d -1 -p OLSR -e 48 -c 2 -a 0 -i 16 -k RTR
r -t 0.204157115 -s 4 -d -1 -p OLSR -e 48 -c 2 -a 0 -i 16 -k RTR
r -t 0.204157187 -s 16 -d -1 -p OLSR -e 48 -c 2 -a 0 -i 16 -k RTR
r -t 0.204157191 -s 17 -d -1 -p OLSR -e 48 -c 2 -a 0 -i 16 -k RTR
r -t 0.204157353 -s 27 -d -1 -p OLSR -e 48 -c 2 -a 0 -i 16 -k RTR
r -t 0.204157405 -s 12 -d -1 -p OLSR -e 48 -c 2 -a 0 -i 16 -k RTR
r -t 0.204157484 -s 1 -d -1 -p OLSR -e 48 -c 2 -a 0 -i 16 -k RTR
r -t 0.204157506 -s 6 -d -1 -p OLSR -e 48 -c 2 -a 0 -i 16 -k RTR
r -t 0.204157506 -s 21 -d -1 -p OLSR -e 48 -c 2 -a 0 -i 16 -k RTR
r -t 0.204157564 -s 23 -d -1 -p OLSR -e 48 -c 2 -a 0 -i 16 -k RTR
r -t 0.204157564 -s 2 -d -1 -p OLSR -e 48 -c 2 -a 0 -i 16 -k RTR
r -t 0.204157586 -s 5 -d -1 -p OLSR -e 48 -c 2 -a 0 -i 16 -k RTR
d -t 0.204800000 -s 0 -d -1 -p cbr -e 532 -c 2 -a 0 -i 17 -k RTR
d -t 0.204800000 -s 3 -d -1 -p cbr -e 532 -c 2 -a 0 -i 18 -k RTR
d -t 0.204800000 -s 1 -d -1 -p cbr -e 532 -c 2 -a 0 -i 19 -k RTR
+ -t 0.210610025 -s 24 -d -1 -p OLSR -e 48 -c 2 -a 0 -i 20 -k RTR 
- -t 0.210610025 -s 24 -d -1 -p OLSR -e 48 -c 2 -a 0 -i 20 -k RTR
h -t 0.210610025 -s 24 -d -1 -p OLSR -e 48 -c 2 -a 0 -i 20 -k RTR
r -t 0.211818025 -s 7 -d -1 -p OLSR -e 48 -c 2 -a 0 -i 20 -k RTR
r -t 0.211818251 -s 25 -d -1 -p OLSR -e 48 -c 2 -a 0 -i 20 -k RTR
r -t 0.211818251 -s 8 -d -1 -p OLSR -e 48 -c 2 -a 0 -i 20 -k RTR
r -t 0.211818363 -s 13 -d -1 -p OLSR -e 48 -c 2 -a 0 -i 20 -k RTR
r -t 0.211818597 -s 18 -d -1 -p OLSR -e 48 -c 2 -a 0 -i 20 -k RTR
r -t 0.211818609 -s 15 -d -1 -p OLSR -e 48 -c 2 -a 0 -i 20 -k RTR
r -t 0.211818616 -s 28 -d -1 -p OLSR -e 48 -c 2 -a 0 -i 20 -k RTR
r -t 0.211818828 -s 5 -d -1 -p OLSR -e 48 -c 2 -a 0 -i 20 -k RTR
+ -t 0.259324397 -s 8 -d -1 -p OLSR -e 48 -c 2 -a 0 -i 21 -k RTR 
- -t 0.259324397 -s 8 -d -1 -p OLSR -e 48 -c 2 -a 0 -i 21 -k RTR
h -t 0.259324397 -s 8 -d -1 -p OLSR -e 48 -c 2 -a 0 -i 21 -k RTR
r -t 0.260292397 -s 25 -d -1 -p OLSR -e 48 -c 2 -a 0 -i 21 -k RTR
r -t 0.260292562 -s 13 -d -1 -p OLSR -e 48 -c 2 -a 0 -i 21 -k RTR
r -t 0.260292623 -s 7 -d -1 -p OLSR -e 48 -c 2 -a 0 -i 21 -k RTR
r -t 0.260292623 -s 24 -d -1 -p OLSR -e 48 -c 2 -a 0 -i 21 -k RTR
r -t 0.260292746 -s 18 -d -1 -p OLSR -e 48 -c 2 -a 0 -i 21 -k RTR
r -t 0.260292808 -s 15 -d -1 -p OLSR -e 48 -c 2 -a 0 -i 21 -k RTR
r -t 0.260292992 -s 5 -d -1 -p OLSR -e 48 -c 2 -a 0 -i 21 -k RTR
r -t 0.260293072 -s 6 -d -1 -p OLSR -e 48 -c 2 -a 0 -i 21 -k RTR
r -t 0.260293072 -s 21 -d -1 -p OLSR -e 48 -c 2 -a 0 -i 21 -k RTR
r -t 0.260293083 -s 28 -d -1 -p OLSR -e 48 -c 2 -a 0 -i 21 -k RTR
+ -t 0.272410983 -s 17 -d -1 -p OLSR -e 48 -c 2 -a 0 -i 22 -k RTR 
- -t 0.272410983 -s 17 -d -1 -p OLSR -e 48 -c 2 -a 0 -i 22 -k RTR
h -t 0.272410983 -s 17 -d -1 -p OLSR -e 48 -c 2 -a 0 -i 22 -k RTR
r -t 0.273799133 -s 4 -d -1 -p OLSR -e 48 -c 2 -a 0 -i 22 -k RTR
r -t 0.273799148 -s 27 -d -1 -p OLSR -e 48 -c 2 -a 0 -i 22 -k RTR
r -t 0.273799383 -s 23 -d -1 -p OLSR -e 48 -c 2 -a 0 -i 22 -k RTR
r -t 0.273799383 -s 2 -d -1 -p OLSR -e 48 -c 2 -a 0 -i 22 -k RTR
r -t 0.273799402 -s 5 -d -1 -p OLSR -e 48 -c 2 -a 0 -i 22 -k RTR
r -t 0.273799416 -s 29 -d -1 -p OLSR -e 48 -c 2 -a 0 -i 22 -k RTR
r -t 0.273799431 -s 22 -d -1 -p OLSR -e 48 -c 2 -a 0 -i 22 -k RTR
r -t 0.273799599 -s 14 -d -1 -p OLSR -e 48 -c 2 -a 0 -i 22 -k RTR
r -t 0.273799613 -s 10 -d -1 -p OLSR -e 48 -c 2 -a 0 -i 22 -k RTR
r -t 0.273799628 -s 18 -d -1 -p OLSR -e 48 -c 2 -a 0 -i 22 -k RTR
r -t 0.273799637 -s 6 -d -1 -p OLSR -e 48 -c 2 -a 0 -i 22 -k RTR
r -t 0.273799637 -s 21 -d -1 -p OLSR -e 48 -c 2 -a 0 -i 22 -k RTR
r -t 0.273799698 -s 3 -d -1 -p OLSR -e 48 -c 2 -a 0 -i 22 -k RTR
r -t 0.273799797 -s 16 -d -1 -p OLSR -e 48 -c 2 -a 0 -i 22 -k RTR
r -t 0.273799803 -s 20 -d -1 -p OLSR -e 48 -c 2 -a 0 -i 22 -k RTR
r -t 0.273799804 -s 15 -d -1 -p OLSR -e 48 -c 2 -a 0 -i 22 -k RTR
+ -t 0.277419837 -s 18 -d -1 -p OLSR -e 48 -c 2 -a 0 -i 23 -k RTR 
- -t 0.277419837 -s 18 -d -1 -p OLSR -e 48 -c 2 -a 0 -i 23 -k RTR
h -t 0.277419837 -s 18 -d -1 -p OLSR -e 48 -c 2 -a 0 -i 23 -k RTR
r -t 0.278848083 -s 15 -d -1 -p OLSR -e 48 -c 2 -a 0 -i 23 -k RTR
r -t 0.278848108 -s 13 -d -1 -p OLSR -e 48 -c 2 -a 0 -i 23 -k RTR
r -t 0.278848186 -s 8 -d -1 -p OLSR -e 48 -c 2 -a 0 -i 23 -k RTR
r -t 0.278848186 -s 25 -d -1 -p OLSR -e 48 -c 2 -a 0 -i 23 -k RTR
r -t 0.278848208 -s 6 -d -1 -p OLSR -e 48 -c 2 -a 0 -i 23 -k RTR
r -t 0.278848208 -s 21 -d -1 -p OLSR -e 48 -c 2 -a 0 -i 23 -k RTR
r -t 0.278848223 -s 5 -d -1 -p OLSR -e 48 -c 2 -a 0 -i 23 -k RTR
r -t 0.278848408 -s 7 -d -1 -p OLSR -e 48 -c 2 -a 0 -i 23 -k RTR
r -t 0.278848408 -s 24 -d -1 -p OLSR -e 48 -c 2 -a 0 -i 23 -k RTR
r -t 0.278848459 -s 27 -d -1 -p OLSR -e 48 -c 2 -a 0 -i 23 -k RTR
r -t 0.278848481 -s 17 -d -1 -p OLSR -e 48 -c 2 -a 0 -i 23 -k RTR
r -t 0.278848573 -s 9 -d -1 -p OLSR -e 48 -c 2 -a 0 -i 23 -k RTR
r -t 0.278848580 -s 10 -d -1 -p OLSR -e 48 -c 2 -a 0 -i 23 -k RTR
r -t 0.278848604 -s 23 -d -1 -p OLSR -e 48 -c 2 -a 0 -i 23 -k RTR
r -t 0.278848604 -s 2 -d -1 -p OLSR -e 48 -c 2 -a 0 -i 23 -k RTR
r -t 0.278848628 -s 4 -d -1 -p OLSR -e 48 -c 2 -a 0 -i 23 -k RTR
+ -t 0.293056240 -s 26 -d -1 -p OLSR -e 48 -c 2 -a 0 -i 24 -k RTR 
- -t 0.293056240 -s 26 -d -1 -p OLSR -e 48 -c 2 -a 0 -i 24 -k RTR
h -t 0.293056240 -s 26 -d -1 -p OLSR -e 48 -c 2 -a 0 -i 24 -k RTR
r -t 0.294184788 -s 16 -d -1 -p OLSR -e 48 -c 2 -a 0 -i 24 -k RTR
r -t 0.294184905 -s 19 -d -1 -p OLSR -e 48 -c 2 -a 0 -i 24 -k RTR
r -t 0.294184929 -s 1 -d -1 -p OLSR -e 48 -c 2 -a 0 -i 24 -k RTR
r -t 0.294184964 -s 14 -d -1 -p OLSR -e 48 -c 2 -a 0 -i 24 -k RTR
r -t 0.294185021 -s 12 -d -1 -p OLSR -e 48 -c 2 -a 0 -i 24 -k RTR
+ -t 0.297513694 -s 15 -d -1 -p OLSR -e 48 -c 2 -a 0 -i 25 -k RTR 
- -t 0.297513694 -s 15 -d -1 -p OLSR -e 48 -c 2 -a 0 -i 25 -k RTR
h -t 0.297513694 -s 15 -d -1 -p OLSR -e 48 -c 2 -a 0 -i 25 -k RTR
r -t 0.298641940 -s 18 -d -1 -p OLSR -e 48 -c 2 -a 0 -i 25 -k RTR
r -t 0.298641946 -s 13 -d -1 -p OLSR -e 48 -c 2 -a 0 -i 25 -k RTR
r -t 0.298641994 -s 21 -d -1 -p OLSR -e 48 -c 2 -a 0 -i 25 -k RTR
r -t 0.298641994 -s 6 -d -1 -p OLSR -e 48 -c 2 -a 0 -i 25 -k RTR
r -t 0.298642104 -s 25 -d -1 -p OLSR -e 48 -c 2 -a 0 -i 25 -k RTR
r -t 0.298642104 -s 8 -d -1 -p OLSR -e 48 -c 2 -a 0 -i 25 -k RTR
r -t 0.298642210 -s 9 -d -1 -p OLSR -e 48 -c 2 -a 0 -i 25 -k RTR
r -t 0.298642278 -s 24 -d -1 -p OLSR -e 48 -c 2 -a 0 -i 25 -k RTR
r -t 0.298642278 -s 7 -d -1 -p OLSR -e 48 -c 2 -a 0 -i 25 -k RTR
r -t 0.298642323 -s 5 -d -1 -p OLSR -e 48 -c 2 -a 0 -i 25 -k RTR
r -t 0.298642396 -s 28 -d -1 -p OLSR -e 48 -c 2 -a 0 -i 25 -k RTR
r -t 0.298642514 -s 17 -d -1 -p OLSR -e 48 -c 2 -a 0 -i 25 -k RTR
r -t 0.298642526 -s 27 -d -1 -p OLSR -e 48 -c 2 -a 0 -i 25 -k RTR
+ -t 0.319432572 -s 3 -d -1 -p OLSR -e 48 -c 2 -a 0 -i 26 -k RTR 
- -t 0.319432572 -s 3 -d -1 -p OLSR -e 48 -c 2 -a 0 -i 26 -k RTR
h -t 0.319432572 -s 3 -d -1 -p OLSR -e 48 -c 2 -a 0 -i 26 -k RTR
r -t 0.320620984 -s 20 -d -1 -p OLSR -e 48 -c 2 -a 0 -i 26 -k RTR
r -t 0.320621000 -s 2 -d -1 -p OLSR -e 48 -c 2 -a 0 -i 26 -k RTR
r -t 0.320621000 -s 23 -d -1 -p OLSR -e 48 -c 2 -a 0 -i 26 -k RTR
r -t 0.320621086 -s 0 -d -1 -p OLSR -e 48 -c 2 -a 0 -i 26 -k RTR
r -t 0.320621162 -s 10 -d -1 -p OLSR -e 48 -c 2 -a 0 -i 26 -k RTR
r -t 0.320621189 -s 27 -d -1 -p OLSR -e 48 -c 2 -a 0 -i 26 -k RTR
r -t 0.320621248 -s 4 -d -1 -p OLSR -e 48 -c 2 -a 0 -i 26 -k RTR
r -t 0.320621286 -s 17 -d -1 -p OLSR -e 48 -c 2 -a 0 -i 26 -k RTR
r -t 0.320621386 -s 5 -d -1 -p OLSR -e 48 -c 2 -a 0 -i 26 -k RTR
+ -t 0.334311947 -s 16 -d -1 -p OLSR -e 48 -c 2 -a 0 -i 27 -k RTR 
- -t 0.334311947 -s 16 -d -1 -p OLSR -e 48 -c 2 -a 0 -i 27 -k RTR
h -t 0.334311947 -s 16 -d -1 -p OLSR -e 48 -c 2 -a 0 -i 27 -k RTR
r -t 0.335360147 -s 14 -d -1 -p OLSR -e 48 -c 2 -a 0 -i 27 -k RTR
r -t 0.335360314 -s 12 -d -1 -p OLSR -e 48 -c 2 -a 0 -i 27 -k RTR
r -t 0.335360320 -s 1 -d -1 -p OLSR -e 48 -c 2 -a 0 -i 27 -k RTR
r -t 0.335360374 -s 29 -d -1 -p OLSR -e 48 -c 2 -a 0 -i 27 -k RTR
r -t 0.335360496 -s 26 -d -1 -p OLSR -e 48 -c 2 -a 0 -i 27 -k RTR
r -t 0.335360508 -s 11 -d -1 -p OLSR -e 48 -c 2 -a 0 -i 27 -k RTR
r -t 0.335360546 -s 22 -d -1 -p OLSR -e 48 -c 2 -a 0 -i 27 -k RTR
r -t 0.335360719 -s 4 -d -1 -p OLSR -e 48 -c 2 -a 0 -i 27 -k RTR
r -t 0.335360732 -s 19 -d -1 -p OLSR -e 48 -c 2 -a 0 -i 27 -k RTR
r -t 0.335360750 -s 6 -d -1 -p OLSR -e 48 -c 2 -a 0 -i 27 -k RTR
r -t 0.335360750 -s 21 -d -1 -p OLSR -e 48 -c 2 -a 0 -i 27 -k RTR
r -t 0.335360759 -s 17 -d -1 -p OLSR -e 48 -c 2 -a 0 -i 27 -k RTR
+ -t 0.347468631 -s 21 -d -1 -p OLSR -e 48 -c 2 -a 0 -i 28 -k RTR 
- -t 0.347468631 -s 21 -d -1 -p OLSR -e 48 -c 2 -a 0 -i 28 -k RTR
h -t 0.347468631 -s 21 -d -1 -p OLSR -e 48 -c 2 -a 0 -i 28 -k RTR
r -t 0.348956631 -s 6 -d -1 -p OLSR -e 48 -c 2 -a 0 -i 28 -k RTR
r -t 0.348956931 -s 15 -d -1 -p OLSR -e 48 -c 2 -a 0 -i 28 -k RTR
r -t 0.348957002 -s 18 -d -1 -p OLSR -e 48 -c 2 -a 0 -i 28 -k RTR
r -t 0.348957094 -s 9 -d -1 -p OLSR -e 48 -c 2 -a 0 -i 28 -k RTR
r -t 0.348957166 -s 13 -d -1 -p OLSR -e 48 -c 2 -a 0 -i 28 -k RTR
r -t 0.348957213 -s 12 -d -1 -p OLSR -e 48 -c 2 -a 0 -i 28 -k RTR
r -t 0.348957264 -s 5 -d -1 -p OLSR -e 48 -c 2 -a 0 -i 28 -k RTR
r -t 0.348957284 -s 17 -d -1 -p OLSR -e 48 -c 2 -a 0 -i 28 -k RTR
r -t 0.348957306 -s 25 -d -1 -p OLSR -e 48 -c 2 -a 0 -i 28 -k RTR
r -t 0.348957306 -s 8 -d -1 -p OLSR -e 48 -c 2 -a 0 -i 28 -k RTR
r -t 0.348957308 -s 11 -d -1 -p OLSR -e 48 -c 2 -a 0 -i 28 -k RTR
r -t 0.348957343 -s 1 -d -1 -p OLSR -e 48 -c 2 -a 0 -i 28 -k RTR
r -t 0.348957345 -s 14 -d -1 -p OLSR -e 48 -c 2 -a 0 -i 28 -k RTR
r -t 0.348957352 -s 27 -d -1 -p OLSR -e 48 -c 2 -a 0 -i 28 -k RTR
r -t 0.348957377 -s 29 -d -1 -p OLSR -e 48 -c 2 -a 0 -i 28 -k RTR
r -t 0.348957396 -s 4 -d -1 -p OLSR -e 48 -c 2 -a 0 -i 28 -k RTR
r -t 0.348957433 -s 16 -d -1 -p OLSR -e 48 -c 2 -a 0 -i 28 -k RTR
+ -t 0.381115946 -s 11 -d -1 -p OLSR -e 48 -c 2 -a 0 -i 29 -k RTR 
- -t 0.381115946 -s 11 -d -1 -p OLSR -e 48 -c 2 -a 0 -i 29 -k RTR
h -t 0.381115946 -s 11 -d -1 -p OLSR -e 48 -c 2 -a 0 -i 29 -k RTR
r -t 0.382644140 -s 1 -d -1 -p OLSR -e 48 -c 2 -a 0 -i 29 -k RTR
r -t 0.382644172 -s 12 -d -1 -p OLSR -e 48 -c 2 -a 0 -i 29 -k RTR
r -t 0.382644496 -s 19 -d -1 -p OLSR -e 48 -c 2 -a 0 -i 29 -k RTR
r -t 0.382644499 -s 9 -d -1 -p OLSR -e 48 -c 2 -a 0 -i 29 -k RTR
r -t 0.382644507 -s 16 -d -1 -p OLSR -e 48 -c 2 -a 0 -i 29 -k RTR
r -t 0.382644613 -s 14 -d -1 -p OLSR -e 48 -c 2 -a 0 -i 29 -k RTR
r -t 0.382644623 -s 21 -d -1 -p OLSR -e 48 -c 2 -a 0 -i 29 -k RTR
r -t 0.382644623 -s 6 -d -1 -p OLSR -e 48 -c 2 -a 0 -i 29 -k RTR
+ -t 0.391887524 -s 28 -d -1 -p OLSR -e 48 -c 2 -a 0 -i 30 -k RTR 
- -t 0.391887524 -s 28 -d -1 -p OLSR -e 48 -c 2 -a 0 -i 30 -k RTR
h -t 0.391887524 -s 28 -d -1 -p OLSR -e 48 -c 2 -a 0 -i 30 -k RTR
r -t 0.393056115 -s 24 -d -1 -p OLSR -e 48 -c 2 -a 0 -i 30 -k RTR
r -t 0.393056115 -s 7 -d -1 -p OLSR -e 48 -c 2 -a 0 -i 30 -k RTR
r -t 0.393056151 -s 13 -d -1 -p OLSR -e 48 -c 2 -a 0 -i 30 -k RTR
r -t 0.393056209 -s 25 -d -1 -p OLSR -e 48 -c 2 -a 0 -i 30 -k RTR
r -t 0.393056209 -s 8 -d -1 -p OLSR -e 48 -c 2 -a 0 -i 30 -k RTR
r -t 0.393056225 -s 15 -d -1 -p OLSR -e 48 -c 2 -a 0 -i 30 -k RTR
r -t 0.393056347 -s 9 -d -1 -p OLSR -e 48 -c 2 -a 0 -i 30 -k RTR
d -t 0.409600000 -s 0 -d -1 -p cbr -e 532 -c 2 -a 0 -i 31 -k RTR
d -t 0.409600000 -s 3 -d -1 -p cbr -e 532 -c 2 -a 0 -i 32 -k RTR
d -t 0.409600000 -s 1 -d -1 -p cbr -e 532 -c 2 -a 0 -i 33 -k RTR
+ -t 0.431033640 -s 9 -d -1 -p OLSR -e 48 -c 2 -a 0 -i 34 -k RTR 
- -t 0.431033640 -s 9 -d -1 -p OLSR -e 48 -c 2 -a 0 -i 34 -k RTR
h -t 0.431033640 -s 9 -d -1 -p OLSR -e 48 -c 2 -a 0 -i 34 -k RTR
r -t 0.432122103 -s 21 -d -1 -p OLSR -e 48 -c 2 -a 0 -i 34 -k RTR
r -t 0.432122103 -s 6 -d -1 -p OLSR -e 48 -c 2 -a 0 -i 34 -k RTR
r -t 0.432122157 -s 15 -d -1 -p OLSR -e 48 -c 2 -a 0 -i 34 -k RTR
r -t 0.432122193 -s 11 -d -1 -p OLSR -e 48 -c 2 -a 0 -i 34 -k RTR
r -t 0.432122268 -s 12 -d -1 -p OLSR -e 48 -c 2 -a 0 -i 34 -k RTR
r -t 0.432122344 -s 1 -d -1 -p OLSR -e 48 -c 2 -a 0 -i 34 -k RTR
r -t 0.432122376 -s 18 -d -1 -p OLSR -e 48 -c 2 -a 0 -i 34 -k RTR
r -t 0.432122379 -s 13 -d -1 -p OLSR -e 48 -c 2 -a 0 -i 34 -k RTR
r -t 0.432122464 -s 28 -d -1 -p OLSR -e 48 -c 2 -a 0 -i 34 -k RTR
+ -t 0.432552741 -s 23 -d -1 -p OLSR -e 48 -c 2 -a 0 -i 35 -k RTR 
- -t 0.432552741 -s 23 -d -1 -p OLSR -e 48 -c 2 -a 0 -i 35 -k RTR
h -t 0.432552741 -s 23 -d -1 -p OLSR -e 48 -c 2 -a 0 -i 35 -k RTR
r -t 0.434020741 -s 2 -d -1 -p OLSR -e 48 -c 2 -a 0 -i 35 -k RTR
r -t 0.434020987 -s 27 -d -1 -p OLSR -e 48 -c 2 -a 0 -i 35 -k RTR
r -t 0.434021030 -s 10 -d -1 -p OLSR -e 48 -c 2 -a 0 -i 35 -k RTR
r -t 0.434021127 -s 5 -d -1 -p OLSR -e 48 -c 2 -a 0 -i 35 -k RTR
r -t 0.434021140 -s 17 -d -1 -p OLSR -e 48 -c 2 -a 0 -i 35 -k RTR
r -t 0.434021160 -s 20 -d -1 -p OLSR -e 48 -c 2 -a 0 -i 35 -k RTR
r -t 0.434021169 -s 3 -d -1 -p OLSR -e 48 -c 2 -a 0 -i 35 -k RTR
r -t 0.434021192 -s 4 -d -1 -p OLSR -e 48 -c 2 -a 0 -i 35 -k RTR
r -t 0.434021446 -s 0 -d -1 -p OLSR -e 48 -c 2 -a 0 -i 35 -k RTR
r -t 0.434021487 -s 22 -d -1 -p OLSR -e 48 -c 2 -a 0 -i 35 -k RTR
r -t 0.434021508 -s 18 -d -1 -p OLSR -e 48 -c 2 -a 0 -i 35 -k RTR
r -t 0.434021546 -s 29 -d -1 -p OLSR -e 48 -c 2 -a 0 -i 35 -k RTR
+ -t 0.443721773 -s 13 -d -1 -p OLSR -e 48 -c 2 -a 0 -i 36 -k RTR 
- -t 0.443721773 -s 13 -d -1 -p OLSR -e 48 -c 2 -a 0 -i 36 -k RTR
h -t 0.443721773 -s 13 -d -1 -p OLSR -e 48 -c 2 -a 0 -i 36 -k RTR
r -t 0.444849938 -s 25 -d -1 -p OLSR -e 48 -c 2 -a 0 -i 36 -k RTR
r -t 0.444849938 -s 8 -d -1 -p OLSR -e 48 -c 2 -a 0 -i 36 -k RTR
r -t 0.444850025 -s 15 -d -1 -p OLSR -e 48 -c 2 -a 0 -i 36 -k RTR
r -t 0.444850044 -s 18 -d -1 -p OLSR -e 48 -c 2 -a 0 -i 36 -k RTR
r -t 0.444850111 -s 7 -d -1 -p OLSR -e 48 -c 2 -a 0 -i 36 -k RTR
r -t 0.444850111 -s 24 -d -1 -p OLSR -e 48 -c 2 -a 0 -i 36 -k RTR
r -t 0.444850308 -s 21 -d -1 -p OLSR -e 48 -c 2 -a 0 -i 36 -k RTR
r -t 0.444850308 -s 6 -d -1 -p OLSR -e 48 -c 2 -a 0 -i 36 -k RTR
r -t 0.444850382 -s 5 -d -1 -p OLSR -e 48 -c 2 -a 0 -i 36 -k RTR
r -t 0.444850400 -s 28 -d -1 -p OLSR -e 48 -c 2 -a 0 -i 36 -k RTR
r -t 0.444850512 -s 9 -d -1 -p OLSR -e 48 -c 2 -a 0 -i 36 -k RTR
+ -t 0.451423821 -s 25 -d -1 -p OLSR -e 48 -c 2 -a 0 -i 37 -k RTR 
- -t 0.451423821 -s 25 -d -1 -p OLSR -e 48 -c 2 -a 0 -i 37 -k RTR
h -t 0.451423821 -s 25 -d -1 -p OLSR -e 48 -c 2 -a 0 -i 37 -k RTR
r -t 0.452751821 -s 8 -d -1 -p OLSR -e 48 -c 2 -a 0 -i 37 -k RTR
r -t 0.452751986 -s 13 -d -1 -p OLSR -e 48 -c 2 -a 0 -i 37 -k RTR
r -t 0.452752047 -s 7 -d -1 -p OLSR -e 48 -c 2 -a 0 -i 37 -k RTR
r -t 0.452752047 -s 24 -d -1 -p OLSR -e 48 -c 2 -a 0 -i 37 -k RTR
r -t 0.452752170 -s 18 -d -1 -p OLSR -e 48 -c 2 -a 0 -i 37 -k RTR
r -t 0.452752232 -s 15 -d -1 -p OLSR -e 48 -c 2 -a 0 -i 37 -k RTR
r -t 0.452752416 -s 5 -d -1 -p OLSR -e 48 -c 2 -a 0 -i 37 -k RTR
r -t 0.452752496 -s 6 -d -1 -p OLSR -e 48 -c 2 -a 0 -i 37 -k RTR
r -t 0.452752496 -s 21 -d -1 -p OLSR -e 48 -c 2 -a 0 -i 37 -k RTR
r -t 0.452752507 -s 28 -d -1 -p OLSR -e 48 -c 2 -a 0 -i 37 -k RTR
+ -t 0.473408095 -s 20 -d -1 -p OLSR -e 48 -c 2 -a 0 -i 38 -k RTR 
- -t 0.473408095 -s 20 -d -1 -p OLSR -e 48 -c 2 -a 0 -i 38 -k RTR
h -t 0.473408095 -s 20 -d -1 -p OLSR -e 48 -c 2 -a 0 -i 38 -k RTR
r -t 0.474596401 -s 0 -d -1 -p OLSR -e 48 -c 2 -a 0 -i 38 -k RTR
r -t 0.474596422 -s 10 -d -1 -p OLSR -e 48 -c 2 -a 0 -i 38 -k RTR
r -t 0.474596507 -s 3 -d -1 -p OLSR -e 48 -c 2 -a 0 -i 38 -k RTR
r -t 0.474596514 -s 2 -d -1 -p OLSR -e 48 -c 2 -a 0 -i 38 -k RTR
r -t 0.474596514 -s 23 -d -1 -p OLSR -e 48 -c 2 -a 0 -i 38 -k RTR
r -t 0.474596759 -s 27 -d -1 -p OLSR -e 48 -c 2 -a 0 -i 38 -k RTR
r -t 0.474596786 -s 5 -d -1 -p OLSR -e 48 -c 2 -a 0 -i 38 -k RTR
r -t 0.474596914 -s 17 -d -1 -p OLSR -e 48 -c 2 -a 0 -i 38 -k RTR
d -t 0.614400000 -s 0 -d -1 -p cbr -e 532 -c 2 -a 0 -i 39 -k RTR