M 0.00000 16 (400.00, 498.00, 0.00), (555.00, 220.00), 10.00
r -t 0.000000000 -Hs 0 -Hd -2 -Ni 0 -Nx 27.00 -Ny 72.00 -Nz 0.00 -Ne -1.000000 -Nl RTR -Nw --- -Ma 0 -Md 0 -Ms 0 -Mt 0 -Is 0.0 -Id 29.0 -It cbr -Il 512 -If 1 -Ii 0 -Iv 32 -Pn cbr -Pi 0 -Pf 0 -Po 0 
d -t 0.000000000 -Hs 0 -Hd -2 -Ni 0 -Nx 27.00 -Ny 72.00 -Nz 0.00 -Ne -1.000000 -Nl RTR -Nw NRTE -Ma 0 -Md 0 -Ms 0 -Mt 0 -Is 0.0 -Id 29.0 -It cbr -Il 532 -If 1 -Ii 0 -Iv 31 -Pn cbr -Pi 0 -Pf 0 -Po 0 
r -t 0.000000000 -Hs 3 -Hd -2 -Ni 3 -Nx 74.00 -Ny 219.00 -Nz 0.00 -Ne -1.000000 -Nl RTR -Nw --- -Ma 0 -Md 0 -Ms 0 -Mt 0 -Is 3.0 -Id 28.0 -It cbr -Il 512 -If 1 -Ii 1 -Iv 32 -Pn cbr -Pi 0 -Pf 0 -Po 0 
d -t 0.000000000 -Hs 3 -Hd -2 -Ni 3 -Nx 74.00 -Ny 219.00 -Nz 0.00 -Ne -1.000000 -Nl RTR -Nw NRTE -Ma 0 -Md 0 -Ms 0 -Mt 0 -Is 3.0 -Id 28.0 -It cbr -Il 532 -If 1 -Ii 1 -Iv 31 -Pn cbr -Pi 0 -Pf 0 -Po 0 
r -t 0.000000000 -Hs 1 -Hd -2 -Ni 1 -Nx 512.00 -Ny 475.00 -Nz 0.00 -Ne -1.000000 -Nl RTR -Nw --- -Ma 0 -Md 0 -Ms 0 -Mt 0 -Is 1.0 -Id 24.0 -It cbr -Il 512 -If 1 -Ii 2 -Iv 32 -Pn cbr -Pi 0 -Pf 0 -Po 0 
d -t 0.000000000 -Hs 1 -Hd -2 -Ni 1 -Nx 512.00 -Ny 475.00 -Nz 0.00 -Ne -1.000000 -Nl RTR -Nw NRTE -Ma 0 -Md 0 -Ms 0 -Mt 0 -Is 1.0 -Id 24.0 -It cbr -Il 532 -If 1 -Ii 2 -Iv 31 -Pn cbr -Pi 0 -Pf 0 -Po 0 
s -t 0.000169789 -Hs 0 -Hd -1 -Ni 0 -Nx 27.00 -Ny 72.00 -Nz 0.00 -Ne -1.000000 -Nl RTR -Nw --- -Ma 0 -Md 0 -Ms 0 -Mt 0 -Is 0.255 -Id -1.255 -It OLSR -Il 48 -If 0 -Ii 3 -Iv 32 -P olsr -Pn 1 -Ps 0 [-Pt HELLO -Po 0 -Ph 0 -Pms 0] 
r -t 0.001698095 -Hs 20 -Hd -1 -Ni 20 -Nx 114.00 -Ny 102.00 -Nz 0.00 -Ne -1.000000 -Nl RTR -Nw --- -Ma 0 -Md ffffffff -Ms 0 -Mt 800 -Is 0.255 -Id -1.255 -It OLSR -Il 48 -If 0 -Ii 3 -Iv 32 -P olsr -Pn 1 -Ps 0 [-Pt HELLO -Po 0 -Ph 0 -Pms 0] 
r -t 0.001698303 -Hs 3 -Hd -1 -Ni 3 -Nx 74.00 -Ny 219.00 -Nz 0.00 -Ne -1.000000 -Nl RTR -Nw --- -Ma 0 -Md ffffffff -Ms 0 -Mt 800 -Is 0.255 -Id -1.255 -It OLSR -Il 48 -If 0 -Ii 3 -Iv 32 -P olsr -Pn 1 -Ps 0 [-Pt HELLO -Po 0 -Ph 0 -Pms 0] 
r -t 0.001698417 -Hs 10 -Hd -1 -Ni 10 -Nx 212.00 -Ny 108.00 -Nz 0.00 -Ne -1.000000 -Nl RTR -Nw --- -Ma 0 -Md ffffffff -Ms 0 -Mt 800 -Is 0.255 -Id -1.255 -It OLSR -Il 48 -If 0 -Ii 3 -Iv 32 -P olsr -Pn 1 -Ps 0 [-Pt HELLO -Po 0 -Ph 0 -Pms 0] 
r -t 0.001698494 -Hs 2 -Hd -1 -Ni 2 -Nx 200.00 -Ny 194.00 -Nz 0.00 -Ne -1.000000 -Nl RTR -Nw --- -Ma 0 -Md ffffffff -Ms 0 -Mt 800 -Is 0.255 -Id -1.255 -It OLSR -Il 48 -If 0 -Ii 3 -Iv 32 -P olsr -Pn 1 -Ps 0 [-Pt HELLO -Po 0 -Ph 0 -Pms 0] 
r -t 0.001698494 -Hs 23 -Hd -1 -Ni 23 -Nx 200.00 -Ny 194.00 -Nz 0.00 -Ne -1.000000 -Nl RTR -Nw --- -Ma 0 -Md ffffffff -Ms 0 -Mt 800 -Is 0.255 -Id -1.255 -It OLSR -Il 48 -If 0 -Ii 3 -Iv 32 -P olsr -Pn 1 -Ps 0 [-Pt HELLO -Po 0 -Ph 0 -Pms 0] 
s -t 0.044061336 -Hs 1 -Hd -1 -Ni 1 -Nx 512.00 -Ny 475.00 -Nz 0.00 -Ne -1.000000 -Nl RTR -Nw --- -Ma 0 -Md 0 -Ms 0 -Mt 0 -Is 1.255 -Id -1.255 -It OLSR -Il 48 -If 0 -Ii 4 -Iv 32 -P olsr -Pn 1 -Ps 0 [-Pt HELLO -Po 1 -Ph 0 -Pms 0] 
r -t 0.045189470 -Hs 12 -Hd -1 -Ni 12 -Nx 496.00 -Ny 438.00 -Nz 0.00 -Ne -1.000000 -Nl RTR -Nw --- -Ma 0 -Md ffffffff -Ms 1 -Mt 800 -Is 1.255 -Id -1.255 -It OLSR -Il 48 -If 0 -Ii 4 -Iv 32 -P olsr -Pn 1 -Ps 0 [-Pt HELLO -Po 1 -Ph 0 -Pms 0] 
r -t 0.045189530 -Hs 11 -Hd -1 -Ni 11 -Nx 563.00 -Ny 447.00 -Nz 0.00 -Ne -1.000000 -Nl RTR -Nw --- -Ma 0 -Md ffffffff -Ms 1 -Mt 800 -Is 1.255 -Id -1.255 -It OLSR -Il 48 -If 0 -Ii 4 -Iv 32 -P olsr -Pn 1 -Ps 0 [-Pt HELLO -Po 1 -Ph 0 -Pms 0] 
r -t 0.045189716 -Hs 16 -Hd -1 -Ni 16 -Nx 400.22 -Ny 497.61 -Nz 0.00 -Ne -1.000000 -Nl RTR -Nw --- -Ma 0 -Md ffffffff -Ms 1 -Mt 800 -Is 1.255 -Id -1.255 -It OLSR -Il 48 -If 0 -Ii 4 -Iv 32 -P olsr -Pn 1 -Ps 0 [-Pt HELLO -Po 1 -Ph 0 -Pms 0] 
r -t 0.045189840 -Hs 14 -Hd -1 -Ni 14 -Nx 363.00 -Ny 449.00 -Nz 0.00 -Ne -1.000000 -Nl RTR -Nw --- -Ma 0 -Md ffffffff -Ms 1 -Mt 800 -Is 1.255 -Id -1.255 -It OLSR -Il 48 -If 0 -Ii 4 -Iv 32 -P olsr -Pn 1 -Ps 0 [-Pt HELLO -Po 1 -Ph 0 -Pms 0] 
r -t 0.045189878 -Hs 19 -Hd -1 -Ni 19 -Nx 610.00 -Ny 605.00 -Nz 0.00 -Ne -1.000000 -Nl RTR -Nw --- -Ma 0 -Md ffffffff -Ms 1 -Mt 800 -Is 1.255 -Id -1.255 -It OLSR -Il 48 -If 0 -Ii 4 -Iv 32 -P olsr -Pn 1 -Ps 0 [-Pt HELLO -Po 1 -Ph 0 -Pms 0] 
r -t 0.045190024 -Hs 26 -Hd -1 -Ni 26 -Nx 418.00 -Ny 659.00 -Nz 0.00 -Ne -1.000000 -Nl RTR -Nw --- -Ma 0 -Md ffffffff -Ms 1 -Mt 800 -Is 1.255 -Id -1.255 -It OLSR -Il 48 -If 0 -Ii 4 -Iv 32 -P olsr -Pn 1 -Ps 0 [-Pt HELLO -Po 1 -Ph 0 -Pms 0] 
r -t 0.045190039 -Hs 9 -Hd -1 -Ni 9 -Nx 610.00 -Ny 288.00 -Nz 0.00 -Ne -1.000000 -Nl RTR -Nw --- -Ma 0 -Md ffffffff -Ms 1 -Mt 800 -Is 1.255 -Id -1.255 -It OLSR -Il 48 -If 0 -Ii 4 -Iv 32 -P olsr -Pn 1 -Ps 0 [-Pt HELLO -Po 1 -Ph 0 -Pms 0] 
r -t 0.045190048 -Hs 21 -Hd -1 -Ni 21 -Nx 473.00 -Ny 265.00 -Nz 0.00 -Ne -1.000000 -Nl RTR -Nw --- -Ma 0 -Md ffffffff -Ms 1 -Mt 800 -Is 1.255 -Id -1.255 -It OLSR -Il 48 -If 0 -Ii 4 -Iv 32 -P olsr -Pn 1 -Ps 0 [-Pt HELLO -Po 1 -Ph 0 -Pms 0] 
r -t 0.045190048 -Hs 6 -Hd -1 -Ni 6 -Nx 473.00 -Ny 265.00 -Nz 0.00 -Ne -1.000000 -Nl RTR -Nw --- -Ma 0 -Md ffffffff -Ms 1 -Mt 800 -Is 1.255 -Id -1.255 -It OLSR -Il 48 -If 0 -Ii 4 -Iv 32 -P olsr -Pn 1 -Ps 0 [-Pt HELLO -Po 1 -Ph 0 -Pms 0] 
r -t 0.045190060 -Hs 29 -Hd -1 -Ni 29 -Nx 304.00 -Ny 412.00 -Nz 0.00 -Ne -1.000000 -Nl RTR -Nw --- -Ma 0 -Md ffffffff -Ms 1 -Mt 800 -Is 1.255 -Id -1.255 -It OLSR -Il 48 -If 0 -Ii 4 -Iv 32 -P olsr -Pn 1 -Ps 0 [-Pt HELLO -Po 1 -Ph 0 -Pms 0] 
s -t 0.045678458 -Hs 22 -Hd -1 -Ni 22 -Nx 241.00 -Ny 414.00 -Nz 0.00 -Ne -1.000000 -Nl RTR -Nw --- -Ma 0 -Md 0 -Ms 0 -Mt 0 -Is 22.255 -Id -1.255 -It OLSR -Il 48 -If 0 -Ii 5 -Iv 32 -P olsr -Pn 1 -Ps 0 [-Pt HELLO -Po 22 -Ph 0 -Pms 0] 
r -t 0.047066668 -Hs 29 -Hd -1 -Ni 29 -Nx 304.00 -Ny 412.00 -Nz 0.00 -Ne -1.000000 -Nl RTR -Nw --- -Ma 0 -Md ffffffff -Ms 16 -Mt 800 -Is 22.255 -Id -1.255 -It OLSR -Il 48 -If 0 -Ii 5 -Iv 32 -P olsr -Pn 1 -Ps 0 [-Pt HELLO -Po 22 -Ph 0 -Pms 0] 
r -t 0.047066773 -Hs 4 -Hd -1 -Ni 4 -Nx 250.00 -Ny 320.00 -Nz 0.00 -Ne -1.000000 -Nl RTR -Nw --- -Ma 0 -Md ffffffff -Ms 16 -Mt 800 -Is 22.255 -Id -1.255 -It OLSR -Il 48 -If 0 -Ii 5 -Iv 32 -P olsr -Pn 1 -Ps 0 [-Pt HELLO -Po 22 -Ph 0 -Pms 0] 
r -t 0.047066881 -Hs 14 -Hd -1 -Ni 14 -Nx 363.00 -Ny 449.00 -Nz 0.00 -Ne -1.000000 -Nl RTR -Nw --- -Ma 0 -Md ffffffff -Ms 16 -Mt 800 -Is 22.255 -Id -1.255 -It OLSR -Il 48 -If 0 -Ii 5 -Iv 32 -P olsr -Pn 1 -Ps 0 [-Pt HELLO -Po 22 -Ph 0 -Pms 0] 
r -t 0.047066905 -Hs 17 -Hd -1 -Ni 17 -Nx 278.00 -Ny 285.00 -Nz 0.00 -Ne -1.000000 -Nl RTR -Nw --- -Ma 0 -Md ffffffff -Ms 16 -Mt 800 -Is 22.255 -Id -1.255 -It OLSR -Il 48 -If 0 -Ii 5 -Iv 32 -P olsr -Pn 1 -Ps 0 [-Pt HELLO -Po 22 -Ph 0 -Pms 0] 
r -t 0.047067041 -Hs 27 -Hd -1 -Ni 27 -Nx 258.00 -Ny 240.00 -Nz 0.00 -Ne -1.000000 -Nl RTR -Nw --- -Ma 0 -Md ffffffff -Ms 16 -Mt 800 -Is 22.255 -Id -1.255 -It OLSR -Il 48 -If 0 -Ii 5 -Iv 32 -P olsr -Pn 1 -Ps 0 [-Pt HELLO -Po 22 -Ph 0 -Pms 0] 
r -t 0.047067058 -Hs 16 -Hd -1 -Ni 16 -Nx 400.23 -Ny 497.59 -Nz 0.00 -Ne -1.000000 -Nl RTR -Nw --- -Ma 0 -Md ffffffff -Ms 16 -Mt 800 -Is 22.255 -Id -1.255 -It OLSR -Il 48 -If 0 -Ii 5 -Iv 32 -P olsr -Pn 1 -Ps 0 [-Pt HELLO -Po 22 -Ph 0 -Pms 0] 
r -t 0.047067204 -Hs 23 -Hd -1 -Ni 23 -Nx 200.00 -Ny 194.00 -Nz 0.00 -Ne -1.000000 -Nl RTR -Nw --- -Ma 0 -Md ffffffff -Ms 16 -Mt 800 -Is 22.255 -Id -1.255 -It OLSR -Il 48 -If 0 -Ii 5 -Iv 32 -P olsr -Pn 1 -Ps 0 [-Pt HELLO -Po 22 -Ph 0 -Pms 0] 
r -t 0.047067204 -Hs 2 -Hd -1 -Ni 2 -Nx 200.00 -Ny 194.00 -Nz 0.00 -Ne -1.000000 -Nl RTR -Nw --- -Ma 0 -Md ffffffff -Ms 16 -Mt 800 -Is 22.255 -Id -1.255 -It OLSR -Il 48 -If 0 -Ii 5 -Iv 32 -P olsr -Pn 1 -Ps 0 [-Pt HELLO -Po 22 -Ph 0 -Pms 0] 
s -t 0.054599236 -Hs 12 -Hd -1 -Ni 12 -Nx 496.00 -Ny 438.00 -Nz 0.00 -Ne -1.000000 -Nl RTR -Nw --- -Ma 0 -Md 0 -Ms 0 -Mt 0 -Is 12.255 -Id -1.255 -It OLSR -Il 48 -If 0 -Ii 6 -Iv 32 -P olsr -Pn 1 -Ps 0 [-Pt HELLO -Po 12 -Ph 0 -Pms 0] 
r -t 0.055667370 -Hs 1 -Hd -1 -Ni 1 -Nx 512.00 -Ny 475.00 -Nz 0.00 -Ne -1.000000 -Nl RTR -Nw --- -Ma 0 -Md ffffffff -Ms c -Mt 800 -Is 12.255 -Id -1.255 -It OLSR -Il 48 -If 0 -Ii 6 -Iv 32 -P olsr -Pn 1 -Ps 0 [-Pt HELLO -Po 12 -Ph 0 -Pms 0] 
r -t 0.055667461 -Hs 11 -Hd -1 -Ni 11 -Nx 563.00 -Ny 447.00 -Nz 0.00 -Ne -1.000000 -Nl RTR -Nw --- -Ma 0 -Md ffffffff -Ms c -Mt 800 -Is 12.255 -Id -1.255 -It OLSR -Il 48 -If 0 -Ii 6 -Iv 32 -P olsr -Pn 1 -Ps 0 [-Pt HELLO -Po 12 -Ph 0 -Pms 0] 
r -t 0.055667612 -Hs 16 -Hd -1 -Ni 16 -Nx 400.27 -Ny 497.51 -Nz 0.00 -Ne -1.000000 -Nl RTR -Nw --- -Ma 0 -Md ffffffff -Ms c -Mt 800 -Is 12.255 -Id -1.255 -It OLSR -Il 48 -If 0 -Ii 6 -Iv 32 -P olsr -Pn 1 -Ps 0 [-Pt HELLO -Po 12 -Ph 0 -Pms 0] 
r -t 0.055667681 -Hs 14 -Hd -1 -Ni 14 -Nx 363.00 -Ny 449.00 -Nz 0.00 -Ne -1.000000 -Nl RTR -Nw --- -Ma 0 -Md ffffffff -Ms c -Mt 800 -Is 12.255 -Id -1.255 -It OLSR -Il 48 -If 0 -Ii 6 -Iv 32 -P olsr -Pn 1 -Ps 0 [-Pt HELLO -Po 12 -Ph 0 -Pms 0] 
r -t 0.055667818 -Hs 21 -Hd -1 -Ni 21 -Nx 473.00 -Ny 265.00 -Nz 0.00 -Ne -1.000000 -Nl RTR -Nw --- -Ma 0 -Md ffffffff -Ms c -Mt 800 -Is 12.255 -Id -1.255 -It OLSR -Il 48 -If 0 -Ii 6 -Iv 32 -P olsr -Pn 1 -Ps 0 [-Pt HELLO -Po 12 -Ph 0 -Pms 0] 
r -t 0.055667818 -Hs 6 -Hd -1 -Ni 6 -Nx 473.00 -Ny 265.00 -Nz 0.00 -Ne -1.000000 -Nl RTR -Nw --- -Ma 0 -Md ffffffff -Ms c -Mt 800 -Is 12.255 -Id -1.255 -It OLSR -Il 48 -If 0 -Ii 6 -Iv 32 -P olsr -Pn 1 -Ps 0 [-Pt HELLO -Po 12 -Ph 0 -Pms 0] 
r -t 0.055667864 -Hs 9 -Hd -1 -Ni 9 -Nx 610.00 -Ny 288.00 -Nz 0.00 -Ne -1.000000 -Nl RTR -Nw --- -Ma 0 -Md ffffffff -Ms c -Mt 800 -Is 12.255 -Id -1.255 -It OLSR -Il 48 -If 0 -Ii 6 -Iv 32 -P olsr -Pn 1 -Ps 0 [-Pt HELLO -Po 12 -Ph 0 -Pms 0] 
r -t 0.055667882 -Hs 29 -Hd -1 -Ni 29 -Nx 304.00 -Ny 412.00 -Nz 0.00 -Ne -1.000000 -Nl RTR -Nw --- -Ma 0 -Md ffffffff -Ms c -Mt 800 -Is 12.255 -Id -1.255 -It OLSR -Il 48 -If 0 -Ii 6 -Iv 32 -P olsr -Pn 1 -Ps 0 [-Pt HELLO -Po 12 -Ph 0 -Pms 0] 
r -t 0.055667910 -Hs 19 -Hd -1 -Ni 19 -Nx 610.00 -Ny 605.00 -Nz 0.00 -Ne -1.000000 -Nl RTR -Nw --- -Ma 0 -Md ffffffff -Ms c -Mt 800 -Is 12.255 -Id -1.255 -It OLSR -Il 48 -If 0 -Ii 6 -Iv 32 -P olsr -Pn 1 -Ps 0 [-Pt HELLO -Po 12 -Ph 0 -Pms 0] 
r -t 0.055668017 -Hs 26 -Hd -1 -Ni 26 -Nx 418.00 -Ny 659.00 -Nz 0.00 -Ne -1.000000 -Nl RTR -Nw --- -Ma 0 -Md ffffffff -Ms c -Mt 800 -Is 12.255 -Id -1.255 -It OLSR -Il 48 -If 0 -Ii 6 -Iv 32 -P olsr -Pn 1 -Ps 0 [-Pt HELLO -Po 12 -Ph 0 -Pms 0] 
s -t 0.056015658 -Hs 14 -Hd -1 -Ni 14 -Nx 363.00 -Ny 449.00 -Nz 0.00 -Ne -1.000000 -Nl RTR -Nw --- -Ma 0 -Md 0 -Ms 0 -Mt 0 -Is 14.255 -Id -1.255 -It OLSR -Il 48 -If 0 -Ii 7 -Iv 32 -P olsr -Pn 1 -Ps 0 [-Pt HELLO -Po 14 -Ph 0 -Pms 0] 
s -t 0.056904124 -Hs 5 -Hd -1 -Ni 5 -Nx 312.00 -Ny 164.00 -Nz 0.00 -Ne -1.000000 -Nl RTR -Nw --- -Ma 0 -Md 0 -Ms 0 -Mt 0 -Is 5.255 -Id -1.255 -It OLSR -Il 48 -If 0 -Ii 8 -Iv 32 -P olsr -Pn 1 -Ps 0 [-Pt HELLO -Po 5 -Ph 0 -Pms 0] 
r -t 0.057183862 -Hs 16 -Hd -1 -Ni 16 -Nx 400.28 -Ny 497.50 -Nz 0.00 -Ne -1.000000 -Nl RTR -Nw --- -Ma 0 -Md ffffffff -Ms e -Mt 800 -Is 14.255 -Id -1.255 -It OLSR -Il 48 -If 0 -Ii 7 -Iv 32 -P olsr -Pn 1 -Ps 0 [-Pt HELLO -Po 14 -Ph 0 -Pms 0] 
r -t 0.057183890 -Hs 29 -Hd -1 -Ni 29 -Nx 304.00 -Ny 412.00 -Nz 0.00 -Ne -1.000000 -Nl RTR -Nw --- -Ma 0 -Md ffffffff -Ms e -Mt 800 -Is 14.255 -Id -1.255 -It OLSR -Il 48 -If 0 -Ii 7 -Iv 32 -P olsr -Pn 1 -Ps 0 [-Pt HELLO -Po 14 -Ph 0 -Pms 0] 
r -t 0.057184081 -Hs 22 -Hd -1 -Ni 22 -Nx 241.00 -Ny 414.00 -Nz 0.00 -Ne -1.000000 -Nl RTR -Nw --- -Ma 0 -Md ffffffff -Ms e -Mt 800 -Is 14.255 -Id -1.255 -It OLSR -Il 48 -If 0 -Ii 7 -Iv 32 -P olsr -Pn 1 -Ps 0 [-Pt HELLO -Po 14 -Ph 0 -Pms 0] 
r -t 0.057184103 -Hs 12 -Hd -1 -Ni 12 -Nx 496.00 -Ny 438.00 -Nz 0.00 -Ne -1.000000 -Nl RTR -Nw --- -Ma 0 -Md ffffffff -Ms e -Mt 800 -Is 14.255 -Id -1.255 -It OLSR -Il 48 -If 0 -Ii 7 -Iv 32 -P olsr -Pn 1 -Ps 0 [-Pt HELLO -Po 14 -Ph 0 -Pms 0] 
r -t 0.057184162 -Hs 1 -Hd -1 -Ni 1 -Nx 512.00 -Ny 475.00 -Nz 0.00 -Ne -1.000000 -Nl RTR -Nw --- -Ma 0 -Md ffffffff -Ms e -Mt 800 -Is 14.255 -Id -1.255 -It OLSR -Il 48 -If 0 -Ii 7 -Iv 32 -P olsr -Pn 1 -Ps 0 [-Pt HELLO -Po 14 -Ph 0 -Pms 0] 
r -t 0.057184230 -Hs 4 -Hd -1 -Ni 4 -Nx 250.00 -Ny 320.00 -Nz 0.00 -Ne -1.000000 -Nl RTR -Nw --- -Ma 0 -Md ffffffff -Ms e -Mt 800 -Is 14.255 -Id -1.255 -It OLSR -Il 48 -If 0 -Ii 7 -Iv 32 -P olsr -Pn 1 -Ps 0 [-Pt HELLO -Po 14 -Ph 0 -Pms 0] 
r -t 0.057184274 -Hs 17 -Hd -1 -Ni 17 -Nx 278.00 -Ny 285.00 -Nz 0.00 -Ne -1.000000 -Nl RTR -Nw --- -Ma 0 -Md ffffffff -Ms e -Mt 800 -Is 14.255 -Id -1.255 -It OLSR -Il 48 -If 0 -Ii 7 -Iv 32 -P olsr -Pn 1 -Ps 0 [-Pt HELLO -Po 14 -Ph 0 -Pms 0] 
r -t 0.057184325 -Hs 11 -Hd -1 -Ni 11 -Nx 563.00 -Ny 447.00 -Nz 0.00 -Ne -1.000000 -Nl RTR -Nw --- -Ma 0 -Md ffffffff -Ms e -Mt 800 -Is 14.255 -Id -1.255 -It OLSR -Il 48 -If 0 -Ii 7 -Iv 32 -P olsr -Pn 1 -Ps 0 [-Pt HELLO -Po 14 -Ph 0 -Pms 0] 
r -t 0.057184372 -Hs 6 -Hd -1 -Ni 6 -Nx 473.00 -Ny 265.00 -Nz 0.00 -Ne -1.000000 -Nl RTR -Nw --- -Ma 0 -Md ffffffff -Ms e -Mt 800 -Is 14.255 -Id -1.255 -It OLSR -Il 48 -If 0 -Ii 7 -Iv 32 -P olsr -Pn 1 -Ps 0 [-Pt HELLO -Po 14 -Ph 0 -Pms 0] 
r -t 0.057184372 -Hs 21 -Hd -1 -Ni 21 -Nx 473.00 -Ny 265.00 -Nz 0.00 -Ne -1.000000 -Nl RTR -Nw --- -Ma 0 -Md ffffffff -Ms e -Mt 800 -Is 14.255 -Id -1.255 -It OLSR -Il 48 -If 0 -Ii 7 -Iv 32 -P olsr -Pn 1 -Ps 0 [-Pt HELLO -Po 14 -Ph 0 -Pms 0] 
r -t 0.057184381 -Hs 26 -Hd -1 -Ni 26 -Nx 418.00 -Ny 659.00 -Nz 0.00 -Ne -1.000000 -Nl RTR -Nw --- -Ma 0 -Md ffffffff -Ms e -Mt 800 -Is 14.255 -Id -1.255 -It OLSR -Il 48 -If 0 -Ii 7 -Iv 32 -P olsr -Pn 1 -Ps 0 [-Pt HELLO -Po 14 -Ph 0 -Pms 0] 
r -t 0.057184438 -Hs 27 -Hd -1 -Ni 27 -Nx 258.00 -Ny 240.00 -Nz 0.00 -Ne -1.000000 -Nl RTR -Nw --- -Ma 0 -Md ffffffff -Ms e -Mt 800 -Is 14.255 -Id -1.255 -It OLSR -Il 48 -If 0 -Ii 7 -Iv 32 -P olsr -Pn 1 -Ps 0 [-Pt HELLO -Po 14 -Ph 0 -Pms 0] 
r -t 0.058446934 -Hs 27 -Hd -1 -Ni 27 -Nx 258.00 -Ny 240.00 -Nz 0.00 -Ne -1.000000 -Nl RTR -Nw --- -Ma 0 -Md ffffffff -Ms 5 -Mt 800 -Is 5.255 -Id -1.255 -It OLSR -Il 48 -If 0 -Ii 8 -Iv 32 -P olsr -Pn 1 -Ps 0 [-Pt HELLO -Po 5 -Ph 0 -Pms 0] 
r -t 0.058447005 -Hs 10 -Hd -1 -Ni 10 -Nx 212.00 -Ny 108.00 -Nz 0.00 -Ne -1.000000 -Nl RTR -Nw --- -Ma 0 -Md ffffffff -Ms 5 -Mt 800 -Is 5.255 -Id -1.255 -It OLSR -Il 48 -If 0 -Ii 8 -Iv 32 -P olsr -Pn 1 -Ps 0 [-Pt HELLO -Po 5 -Ph 0 -Pms 0] 
r -t 0.058447009 -Hs 23 -Hd -1 -Ni 23 -Nx 200.00 -Ny 194.00 -Nz 0.00 -Ne -1.000000 -Nl RTR -Nw --- -Ma 0 -Md ffffffff -Ms 5 -Mt 800 -Is 5.255 -Id -1.255 -It OLSR -Il 48 -If 0 -Ii 8 -Iv 32 -P olsr -Pn 1 -Ps 0 [-Pt HELLO -Po 5 -Ph 0 -Pms 0] 
r -t 0.058447009 -Hs 2 -Hd -1 -Ni 2 -Nx 200.00 -Ny 194.00 -Nz 0.00 -Ne -1.000000 -Nl RTR -Nw --- -Ma 0 -Md ffffffff -Ms 5 -Mt 800 -Is 5.255 -Id -1.255 -It OLSR -Il 48 -If 0 -Ii 8 -Iv 32 -P olsr -Pn 1 -Ps 0 [-Pt HELLO -Po 5 -Ph 0 -Pms 0] 
r -t 0.058447010 -Hs 18 -Hd -1 -Ni 18 -Nx 428.00 -Ny 163.00 -Nz 0.00 -Ne -1.000000 -Nl RTR -Nw --- -Ma 0 -Md ffffffff -Ms 5 -Mt 800 -Is 5.255 -Id -1.255 -It OLSR -Il 48 -If 0 -Ii 8 -Iv 32 -P olsr -Pn 1 -Ps 0 [-Pt HELLO -Po 5 -Ph 0 -Pms 0] 
r -t 0.058447042 -Hs 17 -Hd -1 -Ni 17 -Nx 278.00 -Ny 285.00 -Nz 0.00 -Ne -1.000000 -Nl RTR -Nw --- -Ma 0 -Md ffffffff -Ms 5 -Mt 800 -Is 5.255 -Id -1.255 -It OLSR -Il 48 -If 0 -Ii 8 -Iv 32 -P olsr -Pn 1 -Ps 0 [-Pt HELLO -Po 5 -Ph 0 -Pms 0] 
r -t 0.058447183 -Hs 4 -Hd -1 -Ni 4 -Nx 250.00 -Ny 320.00 -Nz 0.00 -Ne -1.000000 -Nl RTR -Nw --- -Ma 0 -Md ffffffff -Ms 5 -Mt 800 -Is 5.255 -Id -1.255 -It OLSR -Il 48 -If 0 -Ii 8 -Iv 32 -P olsr -Pn 1 -Ps 0 [-Pt HELLO -Po 5 -Ph 0 -Pms 0] 
r -t 0.058447217 -Hs 8 -Hd -1 -Ni 8 -Nx 459.00 -Ny 63.00 -Nz 0.00 -Ne -1.000000 -Nl RTR -Nw --- -Ma 0 -Md ffffffff -Ms 5 -Mt 800 -Is 5.255 -Id -1.255 -It OLSR -Il 48 -If 0 -Ii 8 -Iv 32 -P olsr -Pn 1 -Ps 0 [-Pt HELLO -Po 5 -Ph 0 -Pms 0] 
r -t 0.058447217 -Hs 25 -Hd -1 -Ni 25 -Nx 459.00 -Ny 63.00 -Nz 0.00 -Ne -1.000000 -Nl RTR -Nw --- -Ma 0 -Md ffffffff -Ms 5 -Mt 800 -Is 5.255 -Id -1.255 -It OLSR -Il 48 -If 0 -Ii 8 -Iv 32 -P olsr -Pn 1 -Ps 0 [-Pt HELLO -Po 5 -Ph 0 -Pms 0] 
r -t 0.058447232 -Hs 13 -Hd -1 -Ni 13 -Nx 485.00 -Ny 105.00 -Nz 0.00 -Ne -1.000000 -Nl RTR -Nw --- -Ma 0 -Md ffffffff -Ms 5 -Mt 800 -Is 5.255 -Id -1.255 -It OLSR -Il 48 -If 0 -Ii 8 -Iv 32 -P olsr -Pn 1 -Ps 0 [-Pt HELLO -Po 5 -Ph 0 -Pms 0] 
r -t 0.058447252 -Hs 15 -Hd -1 -Ni 15 -Nx 500.00 -Ny 179.00 -Nz 0.00 -Ne -1.000000 -Nl RTR -Nw --- -Ma 0 -Md ffffffff -Ms 5 -Mt 800 -Is 5.255 -Id -1.255 -It OLSR -Il 48 -If 0 -Ii 8 -Iv 32 -P olsr -Pn 1 -Ps 0 [-Pt HELLO -Po 5 -Ph 0 -Pms 0] 
r -t 0.058447256 -Hs 6 -Hd -1 -Ni 6 -Nx 473.00 -Ny 265.00 -Nz 0.00 -Ne -1.000000 -Nl RTR -Nw --- -Ma 0 -Md ffffffff -Ms 5 -Mt 800 -Is 5.255 -Id -1.255 -It OLSR -Il 48 -If 0 -Ii 8 -Iv 32 -P olsr -Pn 1 -Ps 0 [-Pt HELLO -Po 5 -Ph 0 -Pms 0] 
r -t 0.058447256 -Hs 21 -Hd -1 -Ni 21 -Nx 473.00 -Ny 265.00 -Nz 0.00 -Ne -1.000000 -Nl RTR -Nw --- -Ma 0 -Md ffffffff -Ms 5 -Mt 800 -Is 5.255 -Id -1.255 -It OLSR -Il 48 -If 0 -Ii 8 -Iv 32 -P olsr -Pn 1 -Ps 0 [-Pt HELLO -Po 5 -Ph 0 -Pms 0] 
r -t 0.058447315 -Hs 20 -Hd -1 -Ni 20 -Nx 114.00 -Ny 102.00 -Nz 0.00 -Ne -1.000000 -Nl RTR -Nw --- -Ma 0 -Md ffffffff -Ms 5 -Mt 800 -Is 5.255 -Id -1.255 -It OLSR -Il 48 -If 0 -Ii 8 -Iv 32 -P olsr -Pn 1 -Ps 0 [-Pt HELLO -Po 5 -Ph 0 -Pms 0] 
r -t 0.058447426 -Hs 7 -Hd -1 -Ni 7 -Nx 492.00 -Ny 4.00 -Nz 0.00 -Ne -1.000000 -Nl RTR -Nw --- -Ma 0 -Md ffffffff -Ms 5 -Mt 800 -Is 5.255 -Id -1.255 -It OLSR -Il 48 -If 0 -Ii 8 -Iv 32 -P olsr -Pn 1 -Ps 0 [-Pt HELLO -Po 5 -Ph 0 -Pms 0] 
r -t 0.058447426 -Hs 24 -Hd -1 -Ni 24 -Nx 492.00 -Ny 4.00 -Nz 0.00 -Ne -1.000000 -Nl RTR -Nw --- -Ma 0 -Md ffffffff -Ms 5 -Mt 800 -Is 5.255 -Id -1.255 -It OLSR -Il 48 -If 0 -Ii 8 -Iv 32 -P olsr -Pn 1 -Ps 0 [-Pt HELLO -Po 5 -Ph 0 -Pms 0] 
r -t 0.058447437 -Hs 3 -Hd -1 -Ni 3 -Nx 74.00 -Ny 219.00 -Nz 0.00 -Ne -1.000000 -Nl RTR -Nw --- -Ma 0 -Md ffffffff -Ms 5 -Mt 800 -Is 5.255 -Id -1.255 -It OLSR -Il 48 -If 0 -Ii 8 -Iv 32 -P olsr -Pn 1 -Ps 0 [-Pt HELLO -Po 5 -Ph 0 -Pms 0] 
r -t 0.058447450 -Hs 29 -Hd -1 -Ni 29 -Nx 304.00 -Ny 412.00 -Nz 0.00 -Ne -1.000000 -Nl RTR -Nw --- -Ma 0 -Md ffffffff -Ms 5 -Mt 800 -Is 5.255 -Id -1.255 -It OLSR -Il 48 -If 0 -Ii 8 -Iv 32 -P olsr -Pn 1 -Ps 0 [-Pt HELLO -Po 5 -Ph 0 -Pms 0] 
s -t 0.082072703 -Hs 4 -Hd -1 -Ni 4 -Nx 250.00 -Ny 320.00 -Nz 0.00 -Ne -1.000000 -Nl RTR -Nw --- -Ma 0 -Md 0 -Ms 0 -Mt 0 -Is 4.255 -Id -1.255 -It OLSR -Il 48 -If 0 -Ii 9 -Iv 32 -P olsr -Pn 1 -Ps 0 [-Pt HELLO -Po 4 -Ph 0 -Pms 0] 
r -t 0.083340853 -Hs 17 -Hd -1 -Ni 17 -Nx 278.00 -Ny 285.00 -Nz 0.00 -Ne -1.000000 -Nl RTR -Nw --- -Ma 0 -Md ffffffff -Ms 4 -Mt 800 -Is 4.255 -Id -1.255 -It OLSR -Il 48 -If 0 -Ii 9 -Iv 32 -P olsr -Pn 1 -Ps 0 [-Pt HELLO -Po 4 -Ph 0 -Pms 0] 
r -t 0.083340971 -Hs 27 -Hd -1 -Ni 27 -Nx 258.00 -Ny 240.00 -Nz 0.00 -Ne -1.000000 -Nl RTR -Nw --- -Ma 0 -Md ffffffff -Ms 4 -Mt 800 -Is 4.255 -Id -1.255 -It OLSR -Il 48 -If 0 -Ii 9 -Iv 32 -P olsr -Pn 1 -Ps 0 [-Pt HELLO -Po 4 -Ph 0 -Pms 0] 
r -t 0.083341018 -Hs 22 -Hd -1 -Ni 22 -Nx 241.00 -Ny 414.00 -Nz 0.00 -Ne -1.000000 -Nl RTR -Nw --- -Ma 0 -Md ffffffff -Ms 4 -Mt 800 -Is 4.255 -Id -1.255 -It OLSR -Il 48 -If 0 -Ii 9 -Iv 32 -P olsr -Pn 1 -Ps 0 [-Pt HELLO -Po 4 -Ph 0 -Pms 0] 
r -t 0.083341059 -Hs 29 -Hd -1 -Ni 29 -Nx 304.00 -Ny 412.00 -Nz 0.00 -Ne -1.000000 -Nl RTR -Nw --- -Ma 0 -Md ffffffff -Ms 4 -Mt 800 -Is 4.255 -Id -1.255 -It OLSR -Il 48 -If 0 -Ii 9 -Iv 32 -P olsr -Pn 1 -Ps 0 [-Pt HELLO -Po 4 -Ph 0 -Pms 0] 
r -t 0.083341155 -Hs 23 -Hd -1 -Ni 23 -Nx 200.00 -Ny 194.00 -Nz 0.00 -Ne -1.000000 -Nl RTR -Nw --- -Ma 0 -Md ffffffff -Ms 4 -Mt 800 -Is 4.255 -Id -1.255 -It OLSR -Il 48 -If 0 -Ii 9 -Iv 32 -P olsr -Pn 1 -Ps 0 [-Pt HELLO -Po 4 -Ph 0 -Pms 0] 
r -t 0.083341155 -Hs 2 -Hd -1 -Ni 2 -Nx 200.00 -Ny 194.00 -Nz 0.00 -Ne -1.000000 -Nl RTR -Nw --- -Ma 0 -Md ffffffff -Ms 4 -Mt 800 -Is 4.255 -Id -1.255 -It OLSR -Il 48 -If 0 -Ii 9 -Iv 32 -P olsr -Pn 1 -Ps 0 [-Pt HELLO -Po 4 -Ph 0 -Pms 0] 
r -t 0.083341263 -Hs 5 -Hd -1 -Ni 5 -Nx 312.00 -Ny 164.00 -Nz 0.00 -Ne -1.000000 -Nl RTR -Nw --- -Ma 0 -Md ffffffff -Ms 4 -Mt 800 -Is 4.255 -Id -1.255 -It OLSR -Il 48 -If 0 -Ii 9 -Iv 32 -P olsr -Pn 1 -Ps 0 [-Pt HELLO -Po 4 -Ph 0 -Pms 0] 
r -t 0.083341275 -Hs 14 -Hd -1 -Ni 14 -Nx 363.00 -Ny 449.00 -Nz 0.00 -Ne -1.000000 -Nl RTR -Nw --- -Ma 0 -Md ffffffff -Ms 4 -Mt 800 -Is 4.255 -Id -1.255 -It OLSR -Il 48 -If 0 -Ii 9 -Iv 32 -P olsr -Pn 1 -Ps 0 [-Pt HELLO -Po 4 -Ph 0 -Pms 0] 
r -t 0.083341380 -Hs 3 -Hd -1 -Ni 3 -Nx 74.00 -Ny 219.00 -Nz 0.00 -Ne -1.000000 -Nl RTR -Nw --- -Ma 0 -Md ffffffff -Ms 4 -Mt 800 -Is 4.255 -Id -1.255 -It OLSR -Il 48 -If 0 -Ii 9 -Iv 32 -P olsr -Pn 1 -Ps 0 [-Pt HELLO -Po 4 -Ph 0 -Pms 0] 
r -t 0.083341421 -Hs 10 -Hd -1 -Ni 10 -Nx 212.00 -Ny 108.00 -Nz 0.00 -Ne -1.000000 -Nl RTR -Nw --- -Ma 0 -Md ffffffff -Ms 4 -Mt 800 -Is 4.255 -Id -1.255 -It OLSR -Il 48 -If 0 -Ii 9 -Iv 32 -P olsr -Pn 1 -Ps 0 [-Pt HELLO -Po 4 -Ph 0 -Pms 0] 
r -t 0.083341469 -Hs 6 -Hd -1 -Ni 6 -Nx 473.00 -Ny 265.00 -Nz 0.00 -Ne -1.000000 -Nl RTR -Nw --- -Ma 0 -Md ffffffff -Ms 4 -Mt 800 -Is 4.255 -Id -1.255 -It OLSR -Il 48 -If 0 -Ii 9 -Iv 32 -P olsr -Pn 1 -Ps 0 [-Pt HELLO -Po 4 -Ph 0 -Pms 0] 
r -t 0.083341469 -Hs 21 -Hd -1 -Ni 21 -Nx 473.00 -Ny 265.00 -Nz 0.00 -Ne -1.000000 -Nl RTR -Nw --- -Ma 0 -Md ffffffff -Ms 4 -Mt 800 -Is 4.255 -Id -1.255 -It OLSR -Il 48 -If 0 -Ii 9 -Iv 32 -P olsr -Pn 1 -Ps 0 [-Pt HELLO -Po 4 -Ph 0 -Pms 0] 
r -t 0.083341478 -Hs 16 -Hd -1 -Ni 16 -Nx 400.41 -Ny 497.27 -Nz 0.00 -Ne -1.000000 -Nl RTR -Nw --- -Ma 0 -Md ffffffff -Ms 4 -Mt 800 -Is 4.255 -Id -1.255 -It OLSR -Il 48 -If 0 -Ii 9 -Iv 32 -P olsr -Pn 1 -Ps 0 [-Pt HELLO -Po 4 -Ph 0 -Pms 0] 
r -t 0.083341494 -Hs 18 -Hd -1 -Ni 18 -Nx 428.00 -Ny 163.00 -Nz 0.00 -Ne -1.000000 -Nl RTR -Nw --- -Ma 0 -Md ffffffff -Ms 4 -Mt 800 -Is 4.255 -Id -1.255 -It OLSR -Il 48 -If 0 -Ii 9 -Iv 32 -P olsr -Pn 1 -Ps 0 [-Pt HELLO -Po 4 -Ph 0 -Pms 0] 
s -t 0.087402627 -Hs 6 -Hd -1 -Ni 6 -Nx 473.00 -Ny 265.00 -Nz 0.00 -Ne -1.000000 -Nl RTR -Nw --- -Ma 0 -Md 0 -Ms 0 -Mt 0 -Is 6.255 -Id -1.255 -It OLSR -Il 48 -If 0 -Ii 10 -Iv 32 -P olsr -Pn 1 -Ps 0 [-Pt HELLO -Po 6 -Ph 0 -Pms 0] 
r -t 0.088850627 -Hs 21 -Hd -1 -Ni 21 -Nx 473.00 -Ny 265.00 -Nz 0.00 -Ne -1.000000 -Nl RTR -Nw --- -Ma 0 -Md ffffffff -Ms 6 -Mt 800 -Is 6.255 -Id -1.255 -It OLSR -Il 48 -If 0 -Ii 10 -Iv 32 -P olsr -Pn 1 -Ps 0 [-Pt HELLO -Po 6 -Ph 0 -Pms 0] 
r -t 0.088850927 -Hs 15 -Hd -1 -Ni 15 -Nx 500.00 -Ny 179.00 -Nz 0.00 -Ne -1.000000 -Nl RTR -Nw --- -Ma 0 -Md ffffffff -Ms 6 -Mt 800 -Is 6.255 -Id -1.255 -It OLSR -Il 48 -If 0 -Ii 10 -Iv 32 -P olsr -Pn 1 -Ps 0 [-Pt HELLO -Po 6 -Ph 0 -Pms 0] 
r -t 0.088850999 -Hs 18 -Hd -1 -Ni 18 -Nx 428.00 -Ny 163.00 -Nz 0.00 -Ne -1.000000 -Nl RTR -Nw --- -Ma 0 -Md ffffffff -Ms 6 -Mt 800 -Is 6.255 -Id -1.255 -It OLSR -Il 48 -If 0 -Ii 10 -Iv 32 -P olsr -Pn 1 -Ps 0 [-Pt HELLO -Po 6 -Ph 0 -Pms 0] 
r -t 0.088851090 -Hs 9 -Hd -1 -Ni 9 -Nx 610.00 -Ny 288.00 -Nz 0.00 -Ne -1.000000 -Nl RTR -Nw --- -Ma 0 -Md ffffffff -Ms 6 -Mt 800 -Is 6.255 -Id -1.255 -It OLSR -Il 48 -If 0 -Ii 10 -Iv 32 -P olsr -Pn 1 -Ps 0 [-Pt HELLO -Po 6 -Ph 0 -Pms 0] 
r -t 0.088851162 -Hs 13 -Hd -1 -Ni 13 -Nx 485.00 -Ny 105.00 -Nz 0.00 -Ne -1.000000 -Nl RTR -Nw --- -Ma 0 -Md ffffffff -Ms 6 -Mt 800 -Is 6.255 -Id -1.255 -It OLSR -Il 48 -If 0 -Ii 10 -Iv 32 -P olsr -Pn 1 -Ps 0 [-Pt HELLO -Po 6 -Ph 0 -Pms 0] 
r -t 0.088851209 -Hs 12 -Hd -1 -Ni 12 -Nx 496.00 -Ny 438.00 -Nz 0.00 -Ne -1.000000 -Nl RTR -Nw --- -Ma 0 -Md ffffffff -Ms 6 -Mt 800 -Is 6.255 -Id -1.255 -It OLSR -Il 48 -If 0 -Ii 10 -Iv 32 -P olsr -Pn 1 -Ps 0 [-Pt HELLO -Po 6 -Ph 0 -Pms 0] 
r -t 0.088851260 -Hs 5 -Hd -1 -Ni 5 -Nx 312.00 -Ny 164.00 -Nz 0.00 -Ne -1.000000 -Nl RTR -Nw --- -Ma 0 -Md ffffffff -Ms 6 -Mt 800 -Is 6.255 -Id -1.255 -It OLSR -Il 48 -If 0 -Ii 10 -Iv 32 -P olsr -Pn 1 -Ps 0 [-Pt HELLO -Po 6 -Ph 0 -Pms 0] 
r -t 0.088851280 -Hs 17 -Hd -1 -Ni 17 -Nx 278.00 -Ny 285.00 -Nz 0.00 -Ne -1.000000 -Nl RTR -Nw --- -Ma 0 -Md ffffffff -Ms 6 -Mt 800 -Is 6.255 -Id -1.255 -It OLSR -Il 48 -If 0 -Ii 10 -Iv 32 -P olsr -Pn 1 -Ps 0 [-Pt HELLO -Po 6 -Ph 0 -Pms 0] 
r -t 0.088851302 -Hs 25 -Hd -1 -Ni 25 -Nx 459.00 -Ny 63.00 -Nz 0.00 -Ne -1.000000 -Nl RTR -Nw --- -Ma 0 -Md ffffffff -Ms 6 -Mt 800 -Is 6.255 -Id -1.255 -It OLSR -Il 48 -If 0 -Ii 10 -Iv 32 -P olsr -Pn 1 -Ps 0 [-Pt HELLO -Po 6 -Ph 0 -Pms 0] 
r -t 0.088851302 -Hs 8 -Hd -1 -Ni 8 -Nx 459.00 -Ny 63.00 -Nz 0.00 -Ne -1.000000 -Nl RTR -Nw --- -Ma 0 -Md ffffffff -Ms 6 -Mt 800 -Is 6.255 -Id -1.255 -It OLSR -Il 48 -If 0 -Ii 10 -Iv 32 -P olsr -Pn 1 -Ps 0 [-Pt HELLO -Po 6 -Ph 0 -Pms 0] 
r -t 0.088851304 -Hs 11 -Hd -1 -Ni 11 -Nx 563.00 -Ny 447.00 -Nz 0.00 -Ne -1.000000 -Nl RTR -Nw --- -Ma 0 -Md ffffffff -Ms 6 -Mt 800 -Is 6.255 -Id -1.255 -It OLSR -Il 48 -If 0 -Ii 10 -Iv 32 -P olsr -Pn 1 -Ps 0 [-Pt HELLO -Po 6 -Ph 0 -Pms 0] 
r -t 0.088851339 -Hs 1 -Hd -1 -Ni 1 -Nx 512.00 -Ny 475.00 -Nz 0.00 -Ne -1.000000 -Nl RTR -Nw --- -Ma 0 -Md ffffffff -Ms 6 -Mt 800 -Is 6.255 -Id -1.255 -It OLSR -Il 48 -If 0 -Ii 10 -Iv 32 -P olsr -Pn 1 -Ps 0 [-Pt HELLO -Po 6 -Ph 0 -Pms 0] 
r -t 0.088851341 -Hs 14 -Hd -1 -Ni 14 -Nx 363.00 -Ny 449.00 -Nz 0.00 -Ne -1.000000 -Nl RTR -Nw --- -Ma 0 -Md ffffffff -Ms 6 -Mt 800 -Is 6.255 -Id -1.255 -It OLSR -Il 48 -If 0 -Ii 10 -Iv 32 -P olsr -Pn 1 -Ps 0 [-Pt HELLO -Po 6 -Ph 0 -Pms 0] 
r -t 0.088851348 -Hs 27 -Hd -1 -Ni 27 -Nx 258.00 -Ny 240.00 -Nz 0.00 -Ne -1.000000 -Nl RTR -Nw --- -Ma 0 -Md ffffffff -Ms 6 -Mt 800 -Is 6.255 -Id -1.255 -It OLSR -Il 48 -If 0 -Ii 10 -Iv 32 -P olsr -Pn 1 -Ps 0 [-Pt HELLO -Po 6 -Ph 0 -Pms 0] 
r -t 0.088851374 -Hs 29 -Hd -1 -Ni 29 -Nx 304.00 -Ny 412.00 -Nz 0.00 -Ne -1.000000 -Nl RTR -Nw --- -Ma 0 -Md ffffffff -Ms 6 -Mt 800 -Is 6.255 -Id -1.255 -It OLSR -Il 48 -If 0 -Ii 10 -Iv 32 -P olsr -Pn 1 -Ps 0 [-Pt HELLO -Po 6 -Ph 0 -Pms 0] 
r -t 0.088851393 -Hs 4 -Hd -1 -Ni 4 -Nx 250.00 -Ny 320.00 -Nz 0.00 -Ne -1.000000 -Nl RTR -Nw --- -Ma 0 -Md ffffffff -Ms 6 -Mt 800 -Is 6.255 -Id -1.255 -It OLSR -Il 48 -If 0 -Ii 10 -Iv 32 -P olsr -Pn 1 -Ps 0 [-Pt HELLO -Po 6 -Ph 0 -Pms 0] 
r -t 0.088851438 -Hs 16 -Hd -1 -Ni 16 -Nx 400.43 -Ny 497.22 -Nz 0.00 -Ne -1.000000 -Nl RTR -Nw --- -Ma 0 -Md ffffffff -Ms 6 -Mt 800 -Is 6.255 -Id -1.255 -It OLSR -Il 48 -If 0 -Ii 10 -Iv 32 -P olsr -Pn 1 -Ps 0 [-Pt HELLO -Po 6 -Ph 0 -Pms 0] 
s -t 0.120612814 -Hs 10 -Hd -1 -Ni 10 -Nx 212.00 -Ny 108.00 -Nz 0.00 -Ne -1.000000 -Nl RTR -Nw --- -Ma 0 -Md 0 -Ms 0 -Mt 0 -Is 10.255 -Id -1.255 -It OLSR -Il 48 -If 0 -Ii 11 -Iv 32 -P olsr -Pn 1 -Ps 0 [-Pt HELLO -Po 10 -Ph 0 -Pms 0] 
r -t 0.121721103 -Hs 23 -Hd -1 -Ni 23 -Nx 200.00 -Ny 194.00 -Nz 0.00 -Ne -1.000000 -Nl RTR -Nw --- -Ma 0 -Md ffffffff -Ms a -Mt 800 -Is 10.255 -Id -1.255 -It OLSR -Il 48 -If 0 -Ii 11 -Iv 32 -P olsr -Pn 1 -Ps 0 [-Pt HELLO -Po 10 -Ph 0 -Pms 0] 
r -t 0.121721103 -Hs 2 -Hd -1 -Ni 2 -Nx 200.00 -Ny 194.00 -Nz 0.00 -Ne -1.000000 -Nl RTR -Nw --- -Ma 0 -Md ffffffff -Ms a -Mt 800 -Is 10.255 -Id -1.255 -It OLSR -Il 48 -If 0 -Ii 11 -Iv 32 -P olsr -Pn 1 -Ps 0 [-Pt HELLO -Po 10 -Ph 0 -Pms 0] 
r -t 0.121721141 -Hs 20 -Hd -1 -Ni 20 -Nx 114.00 -Ny 102.00 -Nz 0.00 -Ne -1.000000 -Nl RTR -Nw --- -Ma 0 -Md ffffffff -Ms a -Mt 800 -Is 10.255 -Id -1.255 -It OLSR -Il 48 -If 0 -Ii 11 -Iv 32 -P olsr -Pn 1 -Ps 0 [-Pt HELLO -Po 10 -Ph 0 -Pms 0] 
r -t 0.121721196 -Hs 5 -Hd -1 -Ni 5 -Nx 312.00 -Ny 164.00 -Nz 0.00 -Ne -1.000000 -Nl RTR -Nw --- -Ma 0 -Md ffffffff -Ms a -Mt 800 -Is 10.255 -Id -1.255 -It OLSR -Il 48 -If 0 -Ii 11 -Iv 32 -P olsr -Pn 1 -Ps 0 [-Pt HELLO -Po 10 -Ph 0 -Pms 0] 
r -t 0.121721280 -Hs 27 -Hd -1 -Ni 27 -Nx 258.00 -Ny 240.00 -Nz 0.00 -Ne -1.000000 -Nl RTR -Nw --- -Ma 0 -Md ffffffff -Ms a -Mt 800 -Is 10.255 -Id -1.255 -It OLSR -Il 48 -If 0 -Ii 11 -Iv 32 -P olsr -Pn 1 -Ps 0 [-Pt HELLO -Po 10 -Ph 0 -Pms 0] 
r -t 0.121721404 -Hs 3 -Hd -1 -Ni 3 -Nx 74.00 -Ny 219.00 -Nz 0.00 -Ne -1.000000 -Nl RTR -Nw --- -Ma 0 -Md ffffffff -Ms a -Mt 800 -Is 10.255 -Id -1.255 -It OLSR -Il 48 -If 0 -Ii 11 -Iv 32 -P olsr -Pn 1 -Ps 0 [-Pt HELLO -Po 10 -Ph 0 -Pms 0] 
r -t 0.121721442 -Hs 0 -Hd -1 -Ni 0 -Nx 27.00 -Ny 72.00 -Nz 0.00 -Ne -1.000000 -Nl RTR -Nw --- -Ma 0 -Md ffffffff -Ms a -Mt 800 -Is 10.255 -Id -1.255 -It OLSR -Il 48 -If 0 -Ii 11 -Iv 32 -P olsr -Pn 1 -Ps 0 [-Pt HELLO -Po 10 -Ph 0 -Pms 0] 
r -t 0.121721444 -Hs 17 -Hd -1 -Ni 17 -Nx 278.00 -Ny 285.00 -Nz 0.00 -Ne -1.000000 -Nl RTR -Nw --- -Ma 0 -Md ffffffff -Ms a -Mt 800 -Is 10.255 -Id -1.255 -It OLSR -Il 48 -If 0 -Ii 11 -Iv 32 -P olsr -Pn 1 -Ps 0 [-Pt HELLO -Po 10 -Ph 0 -Pms 0] 
r -t 0.121721532 -Hs 4 -Hd -1 -Ni 4 -Nx 250.00 -Ny 320.00 -Nz 0.00 -Ne -1.000000 -Nl RTR -Nw --- -Ma 0 -Md ffffffff -Ms a -Mt 800 -Is 10.255 -Id -1.255 -It OLSR -Il 48 -If 0 -Ii 11 -Iv 32 -P olsr -Pn 1 -Ps 0 [-Pt HELLO -Po 10 -Ph 0 -Pms 0] 
r -t 0.121721557 -Hs 18 -Hd -1 -Ni 18 -Nx 428.00 -Ny 163.00 -Nz 0.00 -Ne -1.000000 -Nl RTR -Nw --- -Ma 0 -Md ffffffff -Ms a -Mt 800 -Is 10.255 -Id -1.255 -It OLSR -Il 48 -If 0 -Ii 11 -Iv 32 -P olsr -Pn 1 -Ps 0 [-Pt HELLO -Po 10 -Ph 0 -Pms 0] 
s -t 0.156480886 -Hs 2 -Hd -1 -Ni 2 -Nx 200.00 -Ny 194.00 -Nz 0.00 -Ne -1.000000 -Nl RTR -Nw --- -Ma 0 -Md 0 -Ms 0 -Mt 0 -Is 2.255 -Id -1.255 -It OLSR -Il 48 -If 0 -Ii 12 -Iv 32 -P olsr -Pn 1 -Ps 0 [-Pt HELLO -Po 2 -Ph 0 -Pms 0] 
r -t 0.157688886 -Hs 23 -Hd -1 -Ni 23 -Nx 200.00 -Ny 194.00 -Nz 0.00 -Ne -1.000000 -Nl RTR -Nw --- -Ma 0 -Md ffffffff -Ms 2 -Mt 800 -Is 2.255 -Id -1.255 -It OLSR -Il 48 -If 0 -Ii 12 -Iv 32 -P olsr -Pn 1 -Ps 0 [-Pt HELLO -Po 2 -Ph 0 -Pms 0] 
r -t 0.157689133 -Hs 27 -Hd -1 -Ni 27 -Nx 258.00 -Ny 240.00 -Nz 0.00 -Ne -1.000000 -Nl RTR -Nw --- -Ma 0 -Md ffffffff -Ms 2 -Mt 800 -Is 2.255 -Id -1.255 -It OLSR -Il 48 -If 0 -Ii 12 -Iv 32 -P olsr -Pn 1 -Ps 0 [-Pt HELLO -Po 2 -Ph 0 -Pms 0] 
r -t 0.157689175 -Hs 10 -Hd -1 -Ni 10 -Nx 212.00 -Ny 108.00 -Nz 0.00 -Ne -1.000000 -Nl RTR -Nw --- -Ma 0 -Md ffffffff -Ms 2 -Mt 800 -Is 2.255 -Id -1.255 -It OLSR -Il 48 -If 0 -Ii 12 -Iv 32 -P olsr -Pn 1 -Ps 0 [-Pt HELLO -Po 2 -Ph 0 -Pms 0] 
r -t 0.157689272 -Hs 5 -Hd -1 -Ni 5 -Nx 312.00 -Ny 164.00 -Nz 0.00 -Ne -1.000000 -Nl RTR -Nw --- -Ma 0 -Md ffffffff -Ms 2 -Mt 800 -Is 2.255 -Id -1.255 -It OLSR -Il 48 -If 0 -Ii 12 -Iv 32 -P olsr -Pn 1 -Ps 0 [-Pt HELLO -Po 2 -Ph 0 -Pms 0] 
r -t 0.157689285 -Hs 17 -Hd -1 -Ni 17 -Nx 278.00 -Ny 285.00 -Nz 0.00 -Ne -1.000000 -Nl RTR -Nw --- -Ma 0 -Md ffffffff -Ms 2 -Mt 800 -Is 2.255 -Id -1.255 -It OLSR -Il 48 -If 0 -Ii 12 -Iv 32 -P olsr -Pn 1 -Ps 0 [-Pt HELLO -Po 2 -Ph 0 -Pms 0] 