n -t * -s 0  -x 0 -y 0 -Z 0 -z 20  -v circle -c black
n -t * -s 1  -x 0 -y 0 -Z 0 -z 20  -v circle -c black
V -t * -v 1.0a5 -a 0
W -t * -x 400 -y 600
A -t * -n 1 -p 0 -o 0x7fffffff -c 30 -a 1
A -t * -h 1 -m 1073741823 -s 0
n -t * -a 0 -s 0 -S UP -v circle -c black -i black -x 350 -y 200 -Z 0
n -t * -a 1 -s 1 -S UP -v circle -c black -i black -x 200 -y 350 -Z 0
+ -t 20.000000000 -s 0 -d -1 -p cbr -e 210 -c 2 -a 0 -i 0 -k AGT 
- -t 20.000000000 -s 0 -d -1 -p cbr -e 210 -c 2 -a 0 -i 0 -k AGT
h -t 20.000000000 -s 0 -d -1 -p cbr -e 210 -c 2 -a 0 -i 0 -k AGT
+ -t 20.000000000 -s 1 -d -1 -p cbr -e 210 -c 2 -a 0 -i 1 -k AGT 
- -t 20.000000000 -s 1 -d -1 -p cbr -e 210 -c 2 -a 0 -i 1 -k AGT
h -t 20.000000000 -s 1 -d -1 -p cbr -e 210 -c 2 -a 0 -i 1 -k AGT
+ -t 20.003750000 -s 0 -d -1 -p cbr -e 210 -c 2 -a 0 -i 2 -k AGT 
- -t 20.003750000 -s 0 -d -1 -p cbr -e 210 -c 2 -a 0 -i 2 -k AGT
h -t 20.003750000 -s 0 -d -1 -p cbr -e 210 -c 2 -a 0 -i 2 -k AGT
+ -t 20.003750000 -s 1 -d -1 -p cbr -e 210 -c 2 -a 0 -i 3 -k AGT 
- -t 20.003750000 -s 1 -d -1 -p cbr -e 210 -c 2 -a 0 -i 3 -k AGT
h -t 20.003750000 -s 1 -d -1 -p cbr -e 210 -c 2 -a 0 -i 3 -k AGT
+ -t 20.007500000 -s 0 -d -1 -p cbr -e 210 -c 2 -a 0 -i 4 -k AGT 
- -t 20.007500000 -s 0 -d -1 -p cbr -e 210 -c 2 -a 0 -i 4 -k AGT
h -t 20.007500000 -s 0 -d -1 -p cbr -e 210 -c 2 -a 0 -i 4 -k AGT
+ -t 20.007500000 -s 1 -d -1 -p cbr -e 210 -c 2 -a 0 -i 5 -k AGT 
- -t 20.007500000 -s 1 -d -1 -p cbr -e 210 -c 2 -a 0 -i 5 -k AGT
h -t 20.007500000 -s 1 -d -1 -p cbr -e 210 -c 2 -a 0 -i 5 -k AGT
+ -t 20.011250000 -s 0 -d -1 -p cbr -e 210 -c 2 -a 0 -i 6 -k AGT 
- -t 20.011250000 -s 0 -d -1 -p cbr -e 210 -c 2 -a 0 -i 6 -k AGT
h -t 20.011250000 -s 0 -d -1 -p cbr -e 210 -c 2 -a 0 -i 6 -k AGT
+ -t 20.011250000 -s 1 -d -1 -p cbr -e 210 -c 2 -a 0 -i 7 -k AGT 
- -t 20.011250000 -s 1 -d -1 -p cbr -e 210 -c 2 -a 0 -i 7 -k AGT
h -t 20.011250000 -s 1 -d -1 -p cbr -e 210 -c 2 -a 0 -i 7 -k AGT
+ -t 20.015000000 -s 0 -d -1 -p cbr -e 210 -c 2 -a 0 -i 8 -k AGT 
- -t 20.015000000 -s 0 -d -1 -p cbr -e 210 -c 2 -a 0 -i 8 -k AGT
h -t 20.015000000 -s 0 -d -1 -p cbr -e 210 -c 2 -a 0 -i 8 -k AGT
+ -t 20.015000000 -s 1 -d -1 -p cbr -e 210 -c 2 -a 0 -i 9 -k AGT 
- -t 20.015000000 -s 1 -d -1 -p cbr -e 210 -c 2 -a 0 -i 9 -k AGT
h -t 20.015000000 -s 1 -d -1 -p cbr -e 210 -c 2 -a 0 -i 9 -k AGT
+ -t 20.018750000 -s 0 -d -1 -p cbr -e 210 -c 2 -a 0 -i 10 -k AGT 
- -t 20.018750000 -s 0 -d -1 -p cbr -e 210 -c 2 -a 0 -i 10 -k AGT
h -t 20.018750000 -s 0 -d -1 -p cbr -e 210 -c 2 -a 0 -i 10 -k AGT
+ -t 20.018750000 -s 1 -d -1 -p cbr -e 210 -c 2 -a 0 -i 11 -k AGT 
- -t 20.018750000 -s 1 -d -1 -p cbr -e 210 -c 2 -a 0 -i 11 -k AGT
h -t 20.018750000 -s 1 -d -1 -p cbr -e 210 -c 2 -a 0 -i 11 -k AGT
+ -t 20.022500000 -s 0 -d -1 -p cbr -e 210 -c 2 -a 0 -i 12 -k AGT 
- -t 20.022500000 -s 0 -d -1 -p cbr -e 210 -c 2 -a 0 -i 12 -k AGT
h -t 20.022500000 -s 0 -d -1 -p cbr -e 210 -c 2 -a 0 -i 12 -k AGT
+ -t 20.022500000 -s 1 -d -1 -p cbr -e 210 -c 2 -a 0 -i 13 -k AGT 
- -t 20.022500000 -s 1 -d -1 -p cbr -e 210 -c 2 -a 0 -i 13 -k AGT
h -t 20.022500000 -s 1 -d -1 -p cbr -e 210 -c 2 -a 0 -i 13 -k AGT
+ -t 20.026250000 -s 0 -d -1 -p cbr -e 210 -c 2 -a 0 -i 14 -k AGT 
- -t 20.026250000 -s 0 -d -1 -p cbr -e 210 -c 2 -a 0 -i 14 -k AGT
h -t 20.026250000 -s 0 -d -1 -p cbr -e 210 -c 2 -a 0 -i 14 -k AGT
+ -t 20.026250000 -s 1 -d -1 -p cbr -e 210 -c 2 -a 0 -i 15 -k AGT 
- -t 20.026250000 -s 1 -d -1 -p cbr -e 210 -c 2 -a 0 -i 15 -k AGT
h -t 20.026250000 -s 1 -d -1 -p cbr -e 210 -c 2 -a 0 -i 15 -k AGT
+ -t 20.030000000 -s 0 -d -1 -p cbr -e 210 -c 2 -a 0 -i 16 -k AGT 
- -t 20.030000000 -s 0 -d -1 -p cbr -e 210 -c 2 -a 0 -i 16 -k AGT
h -t 20.030000000 -s 0 -d -1 -p cbr -e 210 -c 2 -a 0 -i 16 -k AGT
+ -t 20.030000000 -s 1 -d -1 -p cbr -e 210 -c 2 -a 0 -i 17 -k AGT 
- -t 20.030000000 -s 1 -d -1 -p cbr -e 210 -c 2 -a 0 -i 17 -k AGT
h -t 20.030000000 -s 1 -d -1 -p cbr -e 210 -c 2 -a 0 -i 17 -k AGT
+ -t 20.033750000 -s 0 -d -1 -p cbr -e 210 -c 2 -a 0 -i 18 -k AGT 
- -t 20.033750000 -s 0 -d -1 -p cbr -e 210 -c 2 -a 0 -i 18 -k AGT
h -t 20.033750000 -s 0 -d -1 -p cbr -e 210 -c 2 -a 0 -i 18 -k AGT
+ -t 20.033750000 -s 1 -d -1 -p cbr -e 210 -c 2 -a 0 -i 19 -k AGT 
- -t 20.033750000 -s 1 -d -1 -p cbr -e 210 -c 2 -a 0 -i 19 -k AGT
h -t 20.033750000 -s 1 -d -1 -p cbr -e 210 -c 2 -a 0 -i 19 -k AGT
+ -t 20.037500000 -s 0 -d -1 -p cbr -e 210 -c 2 -a 0 -i 20 -k AGT 
- -t 20.037500000 -s 0 -d -1 -p cbr -e 210 -c 2 -a 0 -i 20 -k AGT
h -t 20.037500000 -s 0 -d -1 -p cbr -e 210 -c 2 -a 0 -i 20 -k AGT
+ -t 20.037500000 -s 1 -d -1 -p cbr -e 210 -c 2 -a 0 -i 21 -k AGT 
- -t 20.037500000 -s 1 -d -1 -p cbr -e 210 -c 2 -a 0 -i 21 -k AGT
h -t 20.037500000 -s 1 -d -1 -p cbr -e 210 -c 2 -a 0 -i 21 -k AGT
+ -t 20.041250000 -s 0 -d -1 -p cbr -e 210 -c 2 -a 0 -i 22 -k AGT 
- -t 20.041250000 -s 0 -d -1 -p cbr -e 210 -c 2 -a 0 -i 22 -k AGT
h -t 20.041250000 -s 0 -d -1 -p cbr -e 210 -c 2 -a 0 -i 22 -k AGT
+ -t 20.041250000 -s 1 -d -1 -p cbr -e 210 -c 2 -a 0 -i 23 -k AGT 
- -t 20.041250000 -s 1 -d -1 -p cbr -e 210 -c 2 -a 0 -i 23 -k AGT
h -t 20.041250000 -s 1 -d -1 -p cbr -e 210 -c 2 -a 0 -i 23 -k AGT
+ -t 20.045000000 -s 0 -d -1 -p cbr -e 210 -c 2 -a 0 -i 24 -k AGT 
- -t 20.045000000 -s 0 -d -1 -p cbr -e 210 -c 2 -a 0 -i 24 -k AGT
h -t 20.045000000 -s 0 -d -1 -p cbr -e 210 -c 2 -a 0 -i 24 -k AGT
+ -t 20.045000000 -s 1 -d -1 -p cbr -e 210 -c 2 -a 0 -i 25 -k AGT 
- -t 20.045000000 -s 1 -d -1 -p cbr -e 210 -c 2 -a 0 -i 25 -k AGT
h -t 20.045000000 -s 1 -d -1 -p cbr -e 210 -c 2 -a 0 -i 25 -k AGT
+ -t 20.048750000 -s 0 -d -1 -p cbr -e 210 -c 2 -a 0 -i 26 -k AGT 
- -t 20.048750000 -s 0 -d -1 -p cbr -e 210 -c 2 -a 0 -i 26 -k AGT
h -t 20.048750000 -s 0 -d -1 -p cbr -e 210 -c 2 -a 0 -i 26 -k AGT
+ -t 20.048750000 -s 1 -d -1 -p cbr -e 210 -c 2 -a 0 -i 27 -k AGT 
- -t 20.048750000 -s 1 -d -1 -p cbr -e 210 -c 2 -a 0 -i 27 -k AGT
h -t 20.048750000 -s 1 -d -1 -p cbr -e 210 -c 2 -a 0 -i 27 -k AGT
+ -t 20.052500000 -s 0 -d -1 -p cbr -e 210 -c 2 -a 0 -i 28 -k AGT 
- -t 20.052500000 -s 0 -d -1 -p cbr -e 210 -c 2 -a 0 -i 28 -k AGT
h -t 20.052500000 -s 0 -d -1 -p cbr -e 210 -c 2 -a 0 -i 28 -k AGT
+ -t 20.052500000 -s 1 -d -1 -p cbr -e 210 -c 2 -a 0 -i 29 -k AGT 
- -t 20.052500000 -s 1 -d -1 -p cbr -e 210 -c 2 -a 0 -i 29 -k AGT
h -t 20.052500000 -s 1 -d -1 -p cbr -e 210 -c 2 -a 0 -i 29 -k AGT
+ -t 20.056250000 -s 0 -d -1 -p cbr -e 210 -c 2 -a 0 -i 30 -k AGT 
- -t 20.056250000 -s 0 -d -1 -p cbr -e 210 -c 2 -a 0 -i 30 -k AGT
h -t 20.056250000 -s 0 -d -1 -p cbr -e 210 -c 2 -a 0 -i 30 -k AGT
+ -t 20.056250000 -s 1 -d -1 -p cbr -e 210 -c 2 -a 0 -i 31 -k AGT 
- -t 20.056250000 -s 1 -d -1 -p cbr -e 210 -c 2 -a 0 -i 31 -k AGT
h -t 20.056250000 -s 1 -d -1 -p cbr -e 210 -c 2 -a 0 -i 31 -k AGT
+ -t 20.060000000 -s 0 -d -1 -p cbr -e 210 -c 2 -a 0 -i 32 -k AGT 
- -t 20.060000000 -s 0 -d -1 -p cbr -e 210 -c 2 -a 0 -i 32 -k AGT
h -t 20.060000000 -s 0 -d -1 -p cbr -e 210 -c 2 -a 0 -i 32 -k AGT
+ -t 20.060000000 -s 1 -d -1 -p cbr -e 210 -c 2 -a 0 -i 33 -k AGT 
- -t 20.060000000 -s 1 -d -1 -p cbr -e 210 -c 2 -a 0 -i 33 -k AGT
h -t 20.060000000 -s 1 -d -1 -p cbr -e 210 -c 2 -a 0 -i 33 -k AGT
+ -t 20.063750000 -s 0 -d -1 -p cbr -e 210 -c 2 -a 0 -i 34 -k AGT 
- -t 20.063750000 -s 0 -d -1 -p cbr -e 210 -c 2 -a 0 -i 34 -k AGT
h -t 20.063750000 -s 0 -d -1 -p cbr -e 210 -c 2 -a 0 -i 34 -k AGT
+ -t 20.063750000 -s 1 -d -1 -p cbr -e 210 -c 2 -a 0 -i 35 -k AGT 
- -t 20.063750000 -s 1 -d -1 -p cbr -e 210 -c 2 -a 0 -i 35 -k AGT
h -t 20.063750000 -s 1 -d -1 -p cbr -e 210 -c 2 -a 0 -i 35 -k AGT
+ -t 20.067500000 -s 0 -d -1 -p cbr -e 210 -c 2 -a 0 -i 36 -k AGT 
- -t 20.067500000 -s 0 -d -1 -p cbr -e 210 -c 2 -a 0 -i 36 -k AGT
h -t 20.067500000 -s 0 -d -1 -p cbr -e 210 -c 2 -a 0 -i 36 -k AGT
+ -t 20.067500000 -s 1 -d -1 -p cbr -e 210 -c 2 -a 0 -i 37 -k AGT 
- -t 20.067500000 -s 1 -d -1 -p cbr -e 210 -c 2 -a 0 -i 37 -k AGT
h -t 20.067500000 -s 1 -d -1 -p cbr -e 210 -c 2 -a 0 -i 37 -k AGT
+ -t 20.071250000 -s 0 -d -1 -p cbr -e 210 -c 2 -a 0 -i 38 -k AGT 
- -t 20.071250000 -s 0 -d -1 -p cbr -e 210 -c 2 -a 0 -i 38 -k AGT
h -t 20.071250000 -s 0 -d -1 -p cbr -e 210 -c 2 -a 0 -i 38 -k AGT
+ -t 20.071250000 -s 1 -d -1 -p cbr -e 210 -c 2 -a 0 -i 39 -k AGT 
- -t 20.071250000 -s 1 -d -1 -p cbr -e 210 -c 2 -a 0 -i 39 -k AGT
h -t 20.071250000 -s 1 -d -1 -p cbr -e 210 -c 2 -a 0 -i 39 -k AGT
+ -t 20.075000000 -s 0 -d -1 -p cbr -e 210 -c 2 -a 0 -i 40 -k AGT 
- -t 20.075000000 -s 0 -d -1 -p cbr -e 210 -c 2 -a 0 -i 40 -k AGT
h -t 20.075000000 -s 0 -d -1 -p cbr -e 210 -c 2 -a 0 -i 40 -k AGT
+ -t 20.075000000 -s 1 -d -1 -p cbr -e 210 -c 2 -a 0 -i 41 -k AGT 
- -t 20.075000000 -s 1 -d -1 -p cbr -e 210 -c 2 -a 0 -i 41 -k AGT
h -t 20.075000000 -s 1 -d -1 -p cbr -e 210 -c 2 -a 0 -i 41 -k AGT
+ -t 20.078750000 -s 0 -d -1 -p cbr -e 210 -c 2 -a 0 -i 42 -k AGT 
- -t 20.078750000 -s 0 -d -1 -p cbr -e 210 -c 2 -a 0 -i 42 -k AGT
h -t 20.078750000 -s 0 -d -1 -p cbr -e 210 -c 2 -a 0 -i 42 -k AGT
+ -t 20.078750000 -s 1 -d -1 -p cbr -e 210 -c 2 -a 0 -i 43 -k AGT 
- -t 20.078750000 -s 1 -d -1 -p cbr -e 210 -c 2 -a 0 -i 43 -k AGT
h -t 20.078750000 -s 1 -d -1 -p cbr -e 210 -c 2 -a 0 -i 43 -k AGT
+ -t 20.082500000 -s 0 -d -1 -p cbr -e 210 -c 2 -a 0 -i 44 -k AGT 
- -t 20.082500000 -s 0 -d -1 -p cbr -e 210 -c 2 -a 0 -i 44 -k AGT
h -t 20.082500000 -s 0 -d -1 -p cbr -e 210 -c 2 -a 0 -i 44 -k AGT
+ -t 20.082500000 -s 1 -d -1 -p cbr -e 210 -c 2 -a 0 -i 45 -k AGT 
- -t 20.082500000 -s 1 -d -1 -p cbr -e 210 -c 2 -a 0 -i 45 -k AGT
h -t 20.082500000 -s 1 -d -1 -p cbr -e 210 -c 2 -a 0 -i 45 -k AGT
+ -t 20.086250000 -s 0 -d -1 -p cbr -e 210 -c 2 -a 0 -i 46 -k AGT 
- -t 20.086250000 -s 0 -d -1 -p cbr -e 210 -c 2 -a 0 -i 46 -k AGT
h -t 20.086250000 -s 0 -d -1 -p cbr -e 210 -c 2 -a 0 -i 46 -k AGT
+ -t 20.086250000 -s 1 -d -1 -p cbr -e 210 -c 2 -a 0 -i 47 -k AGT 
- -t 20.086250000 -s 1 -d -1 -p cbr -e 210 -c 2 -a 0 -i 47 -k AGT
h -t 20.086250000 -s 1 -d -1 -p cbr -e 210 -c 2 -a 0 -i 47 -k AGT
+ -t 20.090000000 -s 0 -d -1 -p cbr -e 210 -c 2 -a 0 -i 48 -k AGT 
- -t 20.090000000 -s 0 -d -1 -p cbr -e 210 -c 2 -a 0 -i 48 -k AGT
h -t 20.090000000 -s 0 -d -1 -p cbr -e 210 -c 2 -a 0 -i 48 -k AGT
+ -t 20.090000000 -s 1 -d -1 -p cbr -e 210 -c 2 -a 0 -i 49 -k AGT 
- -t 20.090000000 -s 1 -d -1 -p cbr -e 210 -c 2 -a 0 -i 49 -k AGT
h -t 20.090000000 -s 1 -d -1 -p cbr -e 210 -c 2 -a 0 -i 49 -k AGT
+ -t 20.093750000 -s 0 -d -1 -p cbr -e 210 -c 2 -a 0 -i 50 -k AGT 
- -t 20.093750000 -s 0 -d -1 -p cbr -e 210 -c 2 -a 0 -i 50 -k AGT
h -t 20.093750000 -s 0 -d -1 -p cbr -e 210 -c 2 -a 0 -i 50 -k AGT
+ -t 20.093750000 -s 1 -d -1 -p cbr -e 210 -c 2 -a 0 -i 51 -k AGT 
- -t 20.093750000 -s 1 -d -1 -p cbr -e 210 -c 2 -a 0 -i 51 -k AGT
h -t 20.093750000 -s 1 -d -1 -p cbr -e 210 -c 2 -a 0 -i 51 -k AGT
+ -t 20.097500000 -s 0 -d -1 -p cbr -e 210 -c 2 -a 0 -i 52 -k AGT 
- -t 20.097500000 -s 0 -d -1 -p cbr -e 210 -c 2 -a 0 -i 52 -k AGT
h -t 20.097500000 -s 0 -d -1 -p cbr -e 210 -c 2 -a 0 -i 52 -k AGT
+ -t 20.097500000 -s 1 -d -1 -p cbr -e 210 -c 2 -a 0 -i 53 -k AGT 
- -t 20.097500000 -s 1 -d -1 -p cbr -e 210 -c 2 -a 0 -i 53 -k AGT
h -t 20.097500000 -s 1 -d -1 -p cbr -e 210 -c 2 -a 0 -i 53 -k AGT
+ -t 20.101250000 -s 0 -d -1 -p cbr -e 210 -c 2 -a 0 -i 54 -k AGT 
- -t 20.101250000 -s 0 -d -1 -p cbr -e 210 -c 2 -a 0 -i 54 -k AGT
h -t 20.101250000 -s 0 -d -1 -p cbr -e 210 -c 2 -a 0 -i 54 -k AGT
+ -t 20.101250000 -s 1 -d -1 -p cbr -e 210 -c 2 -a 0 -i 55 -k AGT 
- -t 20.101250000 -s 1 -d -1 -p cbr -e 210 -c 2 -a 0 -i 55 -k AGT
h -t 20.101250000 -s 1 -d -1 -p cbr -e 210 -c 2 -a 0 -i 55 -k AGT
+ -t 20.105000000 -s 0 -d -1 -p cbr -e 210 -c 2 -a 0 -i 56 -k AGT 
- -t 20.105000000 -s 0 -d -1 -p cbr -e 210 -c 2 -a 0 -i 56 -k AGT
h -t 20.105000000 -s 0 -d -1 -p cbr -e 210 -c 2 -a 0 -i 56 -k AGT
+ -t 20.105000000 -s 1 -d -1 -p cbr -e 210 -c 2 -a 0 -i 57 -k AGT 
- -t 20.105000000 -s 1 -d -1 -p cbr -e 210 -c 2 -a 0 -i 57 -k AGT
h -t 20.105000000 -s 1 -d -1 -p cbr -e 210 -c 2 -a 0 -i 57 -k AGT
+ -t 20.108750000 -s 0 -d -1 -p cbr -e 210 -c 2 -a 0 -i 58 -k AGT 
- -t 20.108750000 -s 0 -d -1 -p cbr -e 210 -c 2 -a 0 -i 58 -k AGT
h -t 20.108750000 -s 0 -d -1 -p cbr -e 210 -c 2 -a 0 -i 58 -k AGT
+ -t 20.108750000 -s 1 -d -1 -p cbr -e 210 -c 2 -a 0 -i 59 -k AGT 
- -t 20.108750000 -s 1 -d -1 -p cbr -e 210 -c 2 -a 0 -i 59 -k AGT
h -t 20.108750000 -s 1 -d -1 -p cbr -e 210 -c 2 -a 0 -i 59 -k AGT
+ -t 20.112500000 -s 0 -d -1 -p cbr -e 210 -c 2 -a 0 -i 60 -k AGT 
- -t 20.112500000 -s 0 -d -1 -p cbr -e 210 -c 2 -a 0 -i 60 -k AGT
h -t 20.112500000 -s 0 -d -1 -p cbr -e 210 -c 2 -a 0 -i 60 -k AGT
+ -t 20.112500000 -s 1 -d -1 -p cbr -e 210 -c 2 -a 0 -i 61 -k AGT 
- -t 20.112500000 -s 1 -d -1 -p cbr -e 210 -c 2 -a 0 -i 61 -k AGT
h -t 20.112500000 -s 1 -d -1 -p cbr -e 210 -c 2 -a 0 -i 61 -k AGT
+ -t 20.116250000 -s 0 -d -1 -p cbr -e 210 -c 2 -a 0 -i 62 -k AGT 
- -t 20.116250000 -s 0 -d -1 -p cbr -e 210 -c 2 -a 0 -i 62 -k AGT
h -t 20.116250000 -s 0 -d -1 -p cbr -e 210 -c 2 -a 0 -i 62 -k AGT
+ -t 20.116250000 -s 1 -d -1 -p cbr -e 210 -c 2 -a 0 -i 63 -k AGT 
- -t 20.116250000 -s 1 -d -1 -p cbr -e 210 -c 2 -a 0 -i 63 -k AGT
h -t 20.116250000 -s 1 -d -1 -p cbr -e 210 -c 2 -a 0 -i 63 -k AGT
+ -t 20.120000000 -s 0 -d -1 -p cbr -e 210 -c 2 -a 0 -i 64 -k AGT 
- -t 20.120000000 -s 0 -d -1 -p cbr -e 210 -c 2 -a 0 -i 64 -k AGT
h -t 20.120000000 -s 0 -d -1 -p cbr -e 210 -c 2 -a 0 -i 64 -k AGT
+ -t 20.120000000 -s 1 -d -1 -p cbr -e 210 -c 2 -a 0 -i 65 -k AGT 
- -t 20.120000000 -s 1 -d -1 -p cbr -e 210 -c 2 -a 0 -i 65 -k AGT
h -t 20.120000000 -s 1 -d -1 -p cbr -e 210 -c 2 -a 0 -i 65 -k AGT
+ -t 20.123750000 -s 0 -d -1 -p cbr -e 210 -c 2 -a 0 -i 66 -k AGT 
- -t 20.123750000 -s 0 -d -1 -p cbr -e 210 -c 2 -a 0 -i 66 -k AGT
h -t 20.123750000 -s 0 -d -1 -p cbr -e 210 -c 2 -a 0 -i 66 -k AGT
+ -t 20.123750000 -s 1 -d -1 -p cbr -e 210 -c 2 -a 0 -i 67 -k AGT 
- -t 20.123750000 -s 1 -d -1 -p cbr -e 210 -c 2 -a 0 -i 67 -k AGT
h -t 20.123750000 -s 1 -d -1 -p cbr -e 210 -c 2 -a 0 -i 67 -k AGT
+ -t 20.127500000 -s 0 -d -1 -p cbr -e 210 -c 2 -a 0 -i 68 -k AGT 
- -t 20.127500000 -s 0 -d -1 -p cbr -e 210 -c 2 -a 0 -i 68 -k AGT
h -t 20.127500000 -s 0 -d -1 -p cbr -e 210 -c 2 -a 0 -i 68 -k AGT
+ -t 20.127500000 -s 1 -d -1 -p cbr -e 210 -c 2 -a 0 -i 69 -k AGT 
- -t 20.127500000 -s 1 -d -1 -p cbr -e 210 -c 2 -a 0 -i 69 -k AGT
h -t 20.127500000 -s 1 -d -1 -p cbr -e 210 -c 2 -a 0 -i 69 -k AGT
+ -t 20.131250000 -s 0 -d -1 -p cbr -e 210 -c 2 -a 0 -i 70 -k AGT 
- -t 20.131250000 -s 0 -d -1 -p cbr -e 210 -c 2 -a 0 -i 70 -k AGT
h -t 20.131250000 -s 0 -d -1 -p cbr -e 210 -c 2 -a 0 -i 70 -k AGT
+ -t 20.131250000 -s 1 -d -1 -p cbr -e 210 -c 2 -a 0 -i 71 -k AGT 
- -t 20.131250000 -s 1 -d -1 -p cbr -e 210 -c 2 -a 0 -i 71 -k AGT
h -t 20.131250000 -s 1 -d -1 -p cbr -e 210 -c 2 -a 0 -i 71 -k AGT
+ -t 20.135000000 -s 0 -d -1 -p cbr -e 210 -c 2 -a 0 -i 72 -k AGT 
- -t 20.135000000 -s 0 -d -1 -p cbr -e 210 -c 2 -a 0 -i 72 -k AGT
h -t 20.135000000 -s 0 -d -1 -p cbr -e 210 -c 2 -a 0 -i 72 -k AGT
+ -t 20.135000000 -s 1 -d -1 -p cbr -e 210 -c 2 -a 0 -i 73 -k AGT 
- -t 20.135000000 -s 1 -d -1 -p cbr -e 210 -c 2 -a 0 -i 73 -k AGT
h -t 20.135000000 -s 1 -d -1 -p cbr -e 210 -c 2 -a 0 -i 73 -k AGT
+ -t 20.138750000 -s 0 -d -1 -p cbr -e 210 -c 2 -a 0 -i 74 -k AGT 
- -t 20.138750000 -s 0 -d -1 -p cbr -e 210 -c 2 -a 0 -i 74 -k AGT
h -t 20.138750000 -s 0 -d -1 -p cbr -e 210 -c 2 -a 0 -i 74 -k AGT
+ -t 20.138750000 -s 1 -d -1 -p cbr -e 210 -c 2 -a 0 -i 75 -k AGT 
- -t 20.138750000 -s 1 -d -1 -p cbr -e 210 -c 2 -a 0 -i 75 -k AGT
h -t 20.138750000 -s 1 -d -1 -p cbr -e 210 -c 2 -a 0 -i 75 -k AGT
+ -t 20.142500000 -s 0 -d -1 -p cbr -e 210 -c 2 -a 0 -i 76 -k AGT 
- -t 20.142500000 -s 0 -d -1 -p cbr -e 210 -c 2 -a 0 -i 76 -k AGT
h -t 20.142500000 -s 0 -d -1 -p cbr -e 210 -c 2 -a 0 -i 76 -k AGT
+ -t 20.142500000 -s 1 -d -1 -p cbr -e 210 -c 2 -a 0 -i 77 -k AGT 
- -t 20.142500000 -s 1 -d -1 -p cbr -e 210 -c 2 -a 0 -i 77 -k AGT
h -t 20.142500000 -s 1 -d -1 -p cbr -e 210 -c 2 -a 0 -i 77 -k AGT
+ -t 20.146250000 -s 0 -d -1 -p cbr -e 210 -c 2 -a 0 -i 78 -k AGT 
- -t 20.146250000 -s 0 -d -1 -p cbr -e 210 -c 2 -a 0 -i 78 -k AGT
h -t 20.146250000 -s 0 -d -1 -p cbr -e 210 -c 2 -a 0 -i 78 -k AGT
+ -t 20.146250000 -s 1 -d -1 -p cbr -e 210 -c 2 -a 0 -i 79 -k AGT 
- -t 20.146250000 -s 1 -d -1 -p cbr -e 210 -c 2 -a 0 -i 79 -k AGT
h -t 20.146250000 -s 1 -d -1 -p cbr -e 210 -c 2 -a 0 -i 79 -k AGT
+ -t 20.150000000 -s 0 -d -1 -p cbr -e 210 -c 2 -a 0 -i 80 -k AGT 
- -t 20.150000000 -s 0 -d -1 -p cbr -e 210 -c 2 -a 0 -i 80 -k AGT
h -t 20.150000000 -s 0 -d -1 -p cbr -e 210 -c 2 -a 0 -i 80 -k AGT
+ -t 20.150000000 -s 1 -d -1 -p cbr -e 210 -c 2 -a 0 -i 81 -k AGT 
- -t 20.150000000 -s 1 -d -1 -p cbr -e 210 -c 2 -a 0 -i 81 -k AGT
h -t 20.150000000 -s 1 -d -1 -p cbr -e 210 -c 2 -a 0 -i 81 -k AGT
+ -t 20.153750000 -s 0 -d -1 -p cbr -e 210 -c 2 -a 0 -i 82 -k AGT 
- -t 20.153750000 -s 0 -d -1 -p cbr -e 210 -c 2 -a 0 -i 82 -k AGT
h -t 20.153750000 -s 0 -d -1 -p cbr -e 210 -c 2 -a 0 -i 82 -k AGT
+ -t 20.153750000 -s 1 -d -1 -p cbr -e 210 -c 2 -a 0 -i 83 -k AGT 
- -t 20.153750000 -s 1 -d -1 -p cbr -e 210 -c 2 -a 0 -i 83 -k AGT
h -t 20.153750000 -s 1 -d -1 -p cbr -e 210 -c 2 -a 0 -i 83 -k AGT
+ -t 20.157500000 -s 0 -d -1 -p cbr -e 210 -c 2 -a 0 -i 84 -k AGT 
- -t 20.157500000 -s 0 -d -1 -p cbr -e 210 -c 2 -a 0 -i 84 -k AGT
h -t 20.157500000 -s 0 -d -1 -p cbr -e 210 -c 2 -a 0 -i 84 -k AGT
+ -t 20.157500000 -s 1 -d -1 -p cbr -e 210 -c 2 -a 0 -i 85 -k AGT 
- -t 20.157500000 -s 1 -d -1 -p cbr -e 210 -c 2 -a 0 -i 85 -k AGT
h -t 20.157500000 -s 1 -d -1 -p cbr -e 210 -c 2 -a 0 -i 85 -k AGT
+ -t 20.161250000 -s 0 -d -1 -p cbr -e 210 -c 2 -a 0 -i 86 -k AGT 
- -t 20.161250000 -s 0 -d -1 -p cbr -e 210 -c 2 -a 0 -i 86 -k AGT
h -t 20.161250000 -s 0 -d -1 -p cbr -e 210 -c 2 -a 0 -i 86 -k AGT
+ -t 20.161250000 -s 1 -d -1 -p cbr -e 210 -c 2 -a 0 -i 87 -k AGT 
- -t 20.161250000 -s 1 -d -1 -p cbr -e 210 -c 2 -a 0 -i 87 -k AGT
h -t 20.161250000 -s 1 -d -1 -p cbr -e 210 -c 2 -a 0 -i 87 -k AGT
+ -t 20.165000000 -s 0 -d -1 -p cbr -e 210 -c 2 -a 0 -i 88 -k AGT 
- -t 20.165000000 -s 0 -d -1 -p cbr -e 210 -c 2 -a 0 -i 88 -k AGT
h -t 20.165000000 -s 0 -d -1 -p cbr -e 210 -c 2 -a 0 -i 88 -k AGT
+ -t 20.165000000 -s 1 -d -1 -p cbr -e 210 -c 2 -a 0 -i 89 -k AGT 
- -t 20.165000000 -s 1 -d -1 -p cbr -e 210 -c 2 -a 0 -i 89 -k AGT
h -t 20.165000000 -s 1 -d -1 -p cbr -e 210 -c 2 -a 0 -i 89 -k AGT
+ -t 20.168750000 -s 0 -d -1 -p cbr -e 210 -c 2 -a 0 -i 90 -k AGT 
- -t 20.168750000 -s 0 -d -1 -p cbr -e 210 -c 2 -a 0 -i 90 -k AGT
h -t 20.168750000 -s 0 -d -1 -p cbr -e 210 -c 2 -a 0 -i 90 -k AGT
+ -t 20.168750000 -s 1 -d -1 -p cbr -e 210 -c 2 -a 0 -i 91 -k AGT 
- -t 20.168750000 -s 1 -d -1 -p cbr -e 210 -c 2 -a 0 -i 91 -k AGT
h -t 20.168750000 -s 1 -d -1 -p cbr -e 210 -c 2 -a 0 -i 91 -k AGT
+ -t 20.172500000 -s 0 -d -1 -p cbr -e 210 -c 2 -a 0 -i 92 -k AGT 
- -t 20.172500000 -s 0 -d -1 -p cbr -e 210 -c 2 -a 0 -i 92 -k AGT
h -t 20.172500000 -s 0 -d -1 -p cbr -e 210 -c 2 -a 0 -i 92 -k AGT
+ -t 20.172500000 -s 1 -d -1 -p cbr -e 210 -c 2 -a 0 -i 93 -k AGT 
- -t 20.172500000 -s 1 -d -1 -p cbr -e 210 -c 2 -a 0 -i 93 -k AGT
h -t 20.172500000 -s 1 -d -1 -p cbr -e 210 -c 2 -a 0 -i 93 -k AGT
+ -t 20.176250000 -s 0 -d -1 -p cbr -e 210 -c 2 -a 0 -i 94 -k AGT 
- -t 20.176250000 -s 0 -d -1 -p cbr -e 210 -c 2 -a 0 -i 94 -k AGT
h -t 20.176250000 -s 0 -d -1 -p cbr -e 210 -c 2 -a 0 -i 94 -k AGT
+ -t 20.176250000 -s 1 -d -1 -p cbr -e 210 -c 2 -a 0 -i 95 -k AGT 
- -t 20.176250000 -s 1 -d -1 -p cbr -e 210 -c 2 -a 0 -i 95 -k AGT
h -t 20.176250000 -s 1 -d -1 -p cbr -e 210 -c 2 -a 0 -i 95 -k AGT
+ -t 20.180000000 -s 0 -d -1 -p cbr -e 210 -c 2 -a 0 -i 96 -k AGT 
- -t 20.180000000 -s 0 -d -1 -p cbr -e 210 -c 2 -a 0 -i 96 -k AGT
h -t 20.180000000 -s 0 -d -1 -p cbr -e 210 -c 2 -a 0 -i 96 -k AGT
+ -t 20.180000000 -s 1 -d -1 -p cbr -e 210 -c 2 -a 0 -i 97 -k AGT 
- -t 20.180000000 -s 1 -d -1 -p cbr -e 210 -c 2 -a 0 -i 97 -k AGT
h -t 20.180000000 -s 1 -d -1 -p cbr -e 210 -c 2 -a 0 -i 97 -k AGT
+ -t 20.183750000 -s 0 -d -1 -p cbr -e 210 -c 2 -a 0 -i 98 -k AGT 
- -t 20.183750000 -s 0 -d -1 -p cbr -e 210 -c 2 -a 0 -i 98 -k AGT
h -t 20.183750000 -s 0 -d -1 -p cbr -e 210 -c 2 -a 0 -i 98 -k AGT
+ -t 20.183750000 -s 1 -d -1 -p cbr -e 210 -c 2 -a 0 -i 99 -k AGT 
- -t 20.183750000 -s 1 -d -1 -p cbr -e 210 -c 2 -a 0 -i 99 -k AGT
h -t 20.183750000 -s 1 -d -1 -p cbr -e 210 -c 2 -a 0 -i 99 -k AGT
+ -t 20.187500000 -s 0 -d -1 -p cbr -e 210 -c 2 -a 0 -i 100 -k AGT 
- -t 20.187500000 -s 0 -d -1 -p cbr -e 210 -c 2 -a 0 -i 100 -k AGT
h -t 20.187500000 -s 0 -d -1 -p cbr -e 210 -c 2 -a 0 -i 100 -k AGT
+ -t 20.187500000 -s 1 -d -1 -p cbr -e 210 -c 2 -a 0 -i 101 -k AGT 
- -t 20.187500000 -s 1 -d -1 -p cbr -e 210 -c 2 -a 0 -i 101 -k AGT
h -t 20.187500000 -s 1 -d -1 -p cbr -e 210 -c 2 -a 0 -i 101 -k AGT
+ -t 20.191250000 -s 0 -d -1 -p cbr -e 210 -c 2 -a 0 -i 102 -k AGT 
- -t 20.191250000 -s 0 -d -1 -p cbr -e 210 -c 2 -a 0 -i 102 -k AGT
h -t 20.191250000 -s 0 -d -1 -p cbr -e 210 -c 2 -a 0 -i 102 -k AGT
+ -t 20.191250000 -s 1 -d -1 -p cbr -e 210 -c 2 -a 0 -i 103 -k AGT 
- -t 20.191250000 -s 1 -d -1 -p cbr -e 210 -c 2 -a 0 -i 103 -k AGT
h -t 20.191250000 -s 1 -d -1 -p cbr -e 210 -c 2 -a 0 -i 103 -k AGT
+ -t 20.195000000 -s 0 -d -1 -p cbr -e 210 -c 2 -a 0 -i 104 -k AGT 
- -t 20.195000000 -s 0 -d -1 -p cbr -e 210 -c 2 -a 0 -i 104 -k AGT
h -t 20.195000000 -s 0 -d -1 -p cbr -e 210 -c 2 -a 0 -i 104 -k AGT
+ -t 20.195000000 -s 1 -d -1 -p cbr -e 210 -c 2 -a 0 -i 105 -k AGT 
- -t 20.195000000 -s 1 -d -1 -p cbr -e 210 -c 2 -a 0 -i 105 -k AGT
h -t 20.195000000 -s 1 -d -1 -p cbr -e 210 -c 2 -a 0 -i 105 -k AGT
+ -t 20.198750000 -s 0 -d -1 -p cbr -e 210 -c 2 -a 0 -i 106 -k AGT 
- -t 20.198750000 -s 0 -d -1 -p cbr -e 210 -c 2 -a 0 -i 106 -k AGT
h -t 20.198750000 -s 0 -d -1 -p cbr -e 210 -c 2 -a 0 -i 106 -k AGT
+ -t 20.198750000 -s 1 -d -1 -p cbr -e 210 -c 2 -a 0 -i 107 -k AGT 
- -t 20.198750000 -s 1 -d -1 -p cbr -e 210 -c 2 -a 0 -i 107 -k AGT
h -t 20.198750000 -s 1 -d -1 -p cbr -e 210 -c 2 -a 0 -i 107 -k AGT
+ -t 20.202500000 -s 0 -d -1 -p cbr -e 210 -c 2 -a 0 -i 108 -k AGT 
- -t 20.202500000 -s 0 -d -1 -p cbr -e 210 -c 2 -a 0 -i 108 -k AGT
h -t 20.202500000 -s 0 -d -1 -p cbr -e 210 -c 2 -a 0 -i 108 -k AGT
+ -t 20.202500000 -s 1 -d -1 -p cbr -e 210 -c 2 -a 0 -i 109 -k AGT 
- -t 20.202500000 -s 1 -d -1 -p cbr -e 210 -c 2 -a 0 -i 109 -k AGT
h -t 20.202500000 -s 1 -d -1 -p cbr -e 210 -c 2 -a 0 -i 109 -k AGT
+ -t 20.206250000 -s 0 -d -1 -p cbr -e 210 -c 2 -a 0 -i 110 -k AGT 
- -t 20.206250000 -s 0 -d -1 -p cbr -e 210 -c 2 -a 0 -i 110 -k AGT
h -t 20.206250000 -s 0 -d -1 -p cbr -e 210 -c 2 -a 0 -i 110 -k AGT
+ -t 20.206250000 -s 1 -d -1 -p cbr -e 210 -c 2 -a 0 -i 111 -k AGT 
- -t 20.206250000 -s 1 -d -1 -p cbr -e 210 -c 2 -a 0 -i 111 -k AGT
h -t 20.206250000 -s 1 -d -1 -p cbr -e 210 -c 2 -a 0 -i 111 -k AGT
+ -t 20.210000000 -s 0 -d -1 -p cbr -e 210 -c 2 -a 0 -i 112 -k AGT 
- -t 20.210000000 -s 0 -d -1 -p cbr -e 210 -c 2 -a 0 -i 112 -k AGT
h -t 20.210000000 -s 0 -d -1 -p cbr -e 210 -c 2 -a 0 -i 112 -k AGT
+ -t 20.210000000 -s 1 -d -1 -p cbr -e 210 -c 2 -a 0 -i 113 -k AGT 
- -t 20.210000000 -s 1 -d -1 -p cbr -e 210 -c 2 -a 0 -i 113 -k AGT
h -t 20.210000000 -s 1 -d -1 -p cbr -e 210 -c 2 -a 0 -i 113 -k AGT
+ -t 20.213750000 -s 0 -d -1 -p cbr -e 210 -c 2 -a 0 -i 114 -k AGT 
- -t 20.213750000 -s 0 -d -1 -p cbr -e 210 -c 2 -a 0 -i 114 -k AGT
h -t 20.213750000 -s 0 -d -1 -p cbr -e 210 -c 2 -a 0 -i 114 -k AGT
+ -t 20.213750000 -s 1 -d -1 -p cbr -e 210 -c 2 -a 0 -i 115 -k AGT 
- -t 20.213750000 -s 1 -d -1 -p cbr -e 210 -c 2 -a 0 -i 115 -k AGT
h -t 20.213750000 -s 1 -d -1 -p cbr -e 210 -c 2 -a 0 -i 115 -k AGT
+ -t 20.217500000 -s 0 -d -1 -p cbr -e 210 -c 2 -a 0 -i 116 -k AGT 
- -t 20.217500000 -s 0 -d -1 -p cbr -e 210 -c 2 -a 0 -i 116 -k AGT
h -t 20.217500000 -s 0 -d -1 -p cbr -e 210 -c 2 -a 0 -i 116 -k AGT
+ -t 20.217500000 -s 1 -d -1 -p cbr -e 210 -c 2 -a 0 -i 117 -k AGT 
- -t 20.217500000 -s 1 -d -1 -p cbr -e 210 -c 2 -a 0 -i 117 -k AGT
h -t 20.217500000 -s 1 -d -1 -p cbr -e 210 -c 2 -a 0 -i 117 -k AGT
+ -t 20.221250000 -s 0 -d -1 -p cbr -e 210 -c 2 -a 0 -i 118 -k AGT 
- -t 20.221250000 -s 0 -d -1 -p cbr -e 210 -c 2 -a 0 -i 118 -k AGT
h -t 20.221250000 -s 0 -d -1 -p cbr -e 210 -c 2 -a 0 -i 118 -k AGT
+ -t 20.221250000 -s 1 -d -1 -p cbr -e 210 -c 2 -a 0 -i 119 -k AGT 
- -t 20.221250000 -s 1 -d -1 -p cbr -e 210 -c 2 -a 0 -i 119 -k AGT
h -t 20.221250000 -s 1 -d -1 -p cbr -e 210 -c 2 -a 0 -i 119 -k AGT
+ -t 20.225000000 -s 0 -d -1 -p cbr -e 210 -c 2 -a 0 -i 120 -k AGT 
- -t 20.225000000 -s 0 -d -1 -p cbr -e 210 -c 2 -a 0 -i 120 -k AGT
h -t 20.225000000 -s 0 -d -1 -p cbr -e 210 -c 2 -a 0 -i 120 -k AGT
+ -t 20.225000000 -s 1 -d -1 -p cbr -e 210 -c 2 -a 0 -i 121 -k AGT 
- -t 20.225000000 -s 1 -d -1 -p cbr -e 210 -c 2 -a 0 -i 121 -k AGT
h -t 20.225000000 -s 1 -d -1 -p cbr -e 210 -c 2 -a 0 -i 121 -k AGT
+ -t 20.228750000 -s 0 -d -1 -p cbr -e 210 -c 2 -a 0 -i 122 -k AGT 
- -t 20.228750000 -s 0 -d -1 -p cbr -e 210 -c 2 -a 0 -i 122 -k AGT
h -t 20.228750000 -s 0 -d -1 -p cbr -e 210 -c 2 -a 0 -i 122 -k AGT
+ -t 20.228750000 -s 1 -d -1 -p cbr -e 210 -c 2 -a 0 -i 123 -k AGT 
- -t 20.228750000 -s 1 -d -1 -p cbr -e 210 -c 2 -a 0 -i 123 -k AGT
h -t 20.228750000 -s 1 -d -1 -p cbr -e 210 -c 2 -a 0 -i 123 -k AGT
+ -t 20.232500000 -s 0 -d -1 -p cbr -e 210 -c 2 -a 0 -i 124 -k AGT 
- -t 20.232500000 -s 0 -d -1 -p cbr -e 210 -c 2 -a 0 -i 124 -k AGT
h -t 20.232500000 -s 0 -d -1 -p cbr -e 210 -c 2 -a 0 -i 124 -k AGT
+ -t 20.232500000 -s 1 -d -1 -p cbr -e 210 -c 2 -a 0 -i 125 -k AGT 
- -t 20.232500000 -s 1 -d -1 -p cbr -e 210 -c 2 -a 0 -i 125 -k AGT
h -t 20.232500000 -s 1 -d -1 -p cbr -e 210 -c 2 -a 0 -i 125 -k AGT
+ -t 20.236250000 -s 0 -d -1 -p cbr -e 210 -c 2 -a 0 -i 126 -k AGT 
- -t 20.236250000 -s 0 -d -1 -p cbr -e 210 -c 2 -a 0 -i 126 -k AGT
h -t 20.236250000 -s 0 -d -1 -p cbr -e 210 -c 2 -a 0 -i 126 -k AGT
+ -t 20.236250000 -s 1 -d -1 -p cbr -e 210 -c 2 -a 0 -i 127 -k AGT 
- -t 20.236250000 -s 1 -d -1 -p cbr -e 210 -c 2 -a 0 -i 127 -k AGT
h -t 20.236250000 -s 1 -d -1 -p cbr -e 210 -c 2 -a 0 -i 127 -k AGT
+ -t 20.240000000 -s 0 -d -1 -p cbr -e 210 -c 2 -a 0 -i 128 -k AGT 
- -t 20.240000000 -s 0 -d -1 -p cbr -e 210 -c 2 -a 0 -i 128 -k AGT
h -t 20.240000000 -s 0 -d -1 -p cbr -e 210 -c 2 -a 0 -i 128 -k AGT
+ -t 20.240000000 -s 1 -d -1 -p cbr -e 210 -c 2 -a 0 -i 129 -k AGT 
- -t 20.240000000 -s 1 -d -1 -p cbr -e 210 -c 2 -a 0 -i 129 -k AGT
h -t 20.240000000 -s 1 -d -1 -p cbr -e 210 -c 2 -a 0 -i 129 -k AGT
+ -t 20.243750000 -s 0 -d -1 -p cbr -e 210 -c 2 -a 0 -i 130 -k AGT 
- -t 20.243750000 -s 0 -d -1 -p cbr -e 210 -c 2 -a 0 -i 130 -k AGT
h -t 20.243750000 -s 0 -d -1 -p cbr -e 210 -c 2 -a 0 -i 130 -k AGT
+ -t 20.243750000 -s 1 -d -1 -p cbr -e 210 -c 2 -a 0 -i 131 -k AGT 
- -t 20.243750000 -s 1 -d -1 -p cbr -e 210 -c 2 -a 0 -i 131 -k AGT
h -t 20.243750000 -s 1 -d -1 -p cbr -e 210 -c 2 -a 0 -i 131 -k AGT
+ -t 20.247500000 -s 0 -d -1 -p cbr -e 210 -c 2 -a 0 -i 132 -k AGT 
- -t 20.247500000 -s 0 -d -1 -p cbr -e 210 -c 2 -a 0 -i 132 -k AGT
h -t 20.247500000 -s 0 -d -1 -p cbr -e 210 -c 2 -a 0 -i 132 -k AGT
+ -t 20.247500000 -s 1 -d -1 -p cbr -e 210 -c 2 -a 0 -i 133 -k AGT 
- -t 20.247500000 -s 1 -d -1 -p cbr -e 210 -c 2 -a 0 -i 133 -k AGT
h -t 20.247500000 -s 1 -d -1 -p cbr -e 210 -c 2 -a 0 -i 133 -k AGT
+ -t 20.251250000 -s 0 -d -1 -p cbr -e 210 -c 2 -a 0 -i 134 -k AGT 
- -t 20.251250000 -s 0 -d -1 -p cbr -e 210 -c 2 -a 0 -i 134 -k AGT
h -t 20.251250000 -s 0 -d -1 -p cbr -e 210 -c 2 -a 0 -i 134 -k AGT
+ -t 20.251250000 -s 1 -d -1 -p cbr -e 210 -c 2 -a 0 -i 135 -k AGT 
- -t 20.251250000 -s 1 -d -1 -p cbr -e 210 -c 2 -a 0 -i 135 -k AGT
h -t 20.251250000 -s 1 -d -1 -p cbr -e 210 -c 2 -a 0 -i 135 -k AGT
+ -t 20.255000000 -s 0 -d -1 -p cbr -e 210 -c 2 -a 0 -i 136 -k AGT 
- -t 20.255000000 -s 0 -d -1 -p cbr -e 210 -c 2 -a 0 -i 136 -k AGT
h -t 20.255000000 -s 0 -d -1 -p cbr -e 210 -c 2 -a 0 -i 136 -k AGT
+ -t 20.255000000 -s 1 -d -1 -p cbr -e 210 -c 2 -a 0 -i 137 -k AGT 
- -t 20.255000000 -s 1 -d -1 -p cbr -e 210 -c 2 -a 0 -i 137 -k AGT
h -t 20.255000000 -s 1 -d -1 -p cbr -e 210 -c 2 -a 0 -i 137 -k AGT
+ -t 20.258750000 -s 0 -d -1 -p cbr -e 210 -c 2 -a 0 -i 138 -k AGT 
- -t 20.258750000 -s 0 -d -1 -p cbr -e 210 -c 2 -a 0 -i 138 -k AGT
h -t 20.258750000 -s 0 -d -1 -p cbr -e 210 -c 2 -a 0 -i 138 -k AGT
+ -t 20.258750000 -s 1 -d -1 -p cbr -e 210 -c 2 -a 0 -i 139 -k AGT 
- -t 20.258750000 -s 1 -d -1 -p cbr -e 210 -c 2 -a 0 -i 139 -k AGT
h -t 20.258750000 -s 1 -d -1 -p cbr -e 210 -c 2 -a 0 -i 139 -k AGT
+ -t 20.262500000 -s 0 -d -1 -p cbr -e 210 -c 2 -a 0 -i 140 -k AGT 
- -t 20.262500000 -s 0 -d -1 -p cbr -e 210 -c 2 -a 0 -i 140 -k AGT
h -t 20.262500000 -s 0 -d -1 -p cbr -e 210 -c 2 -a 0 -i 140 -k AGT
+ -t 20.262500000 -s 1 -d -1 -p cbr -e 210 -c 2 -a 0 -i 141 -k AGT 
- -t 20.262500000 -s 1 -d -1 -p cbr -e 210 -c 2 -a 0 -i 141 -k AGT
h -t 20.262500000 -s 1 -d -1 -p cbr -e 210 -c 2 -a 0 -i 141 -k AGT
+ -t 20.266250000 -s 0 -d -1 -p cbr -e 210 -c 2 -a 0 -i 142 -k AGT 
- -t 20.266250000 -s 0 -d -1 -p cbr -e 210 -c 2 -a 0 -i 142 -k AGT
h -t 20.266250000 -s 0 -d -1 -p cbr -e 210 -c 2 -a 0 -i 142 -k AGT
+ -t 20.266250000 -s 1 -d -1 -p cbr -e 210 -c 2 -a 0 -i 143 -k AGT 
- -t 20.266250000 -s 1 -d -1 -p cbr -e 210 -c 2 -a 0 -i 143 -k AGT
h -t 20.266250000 -s 1 -d -1 -p cbr -e 210 -c 2 -a 0 -i 143 -k AGT
+ -t 20.270000000 -s 0 -d -1 -p cbr -e 210 -c 2 -a 0 -i 144 -k AGT 
- -t 20.270000000 -s 0 -d -1 -p cbr -e 210 -c 2 -a 0 -i 144 -k AGT
h -t 20.270000000 -s 0 -d -1 -p cbr -e 210 -c 2 -a 0 -i 144 -k AGT
+ -t 20.270000000 -s 1 -d -1 -p cbr -e 210 -c 2 -a 0 -i 145 -k AGT 
- -t 20.270000000 -s 1 -d -1 -p cbr -e 210 -c 2 -a 0 -i 145 -k AGT
h -t 20.270000000 -s 1 -d -1 -p cbr -e 210 -c 2 -a 0 -i 145 -k AGT
+ -t 20.273750000 -s 0 -d -1 -p cbr -e 210 -c 2 -a 0 -i 146 -k AGT 
- -t 20.273750000 -s 0 -d -1 -p cbr -e 210 -c 2 -a 0 -i 146 -k AGT
h -t 20.273750000 -s 0 -d -1 -p cbr -e 210 -c 2 -a 0 -i 146 -k AGT
+ -t 20.273750000 -s 1 -d -1 -p cbr -e 210 -c 2 -a 0 -i 147 -k AGT 
- -t 20.273750000 -s 1 -d -1 -p cbr -e 210 -c 2 -a 0 -i 147 -k AGT
h -t 20.273750000 -s 1 -d -1 -p cbr -e 210 -c 2 -a 0 -i 147 -k AGT
+ -t 20.277500000 -s 0 -d -1 -p cbr -e 210 -c 2 -a 0 -i 148 -k AGT 