s 20.000000000 _0_ AGT  --- 0 cbr 210 [0 0 0 0] ------- [0:0 1:0 32 0] [0] 0 0
r 20.000000000 _0_ RTR  --- 0 cbr 210 [0 0 0 0] ------- [0:0 1:0 32 0] [0] 0 0
s 20.000000000 _1_ AGT  --- 1 cbr 210 [0 0 0 0] ------- [1:1 0:1 32 0] [0] 0 0
r 20.000000000 _1_ RTR  --- 1 cbr 210 [0 0 0 0] ------- [1:1 0:1 32 0] [0] 0 0
s 20.003750000 _0_ AGT  --- 2 cbr 210 [0 0 0 0] ------- [0:0 1:0 32 0] [1] 0 0
r 20.003750000 _0_ RTR  --- 2 cbr 210 [0 0 0 0] ------- [0:0 1:0 32 0] [1] 0 0
s 20.003750000 _1_ AGT  --- 3 cbr 210 [0 0 0 0] ------- [1:1 0:1 32 0] [1] 0 0
r 20.003750000 _1_ RTR  --- 3 cbr 210 [0 0 0 0] ------- [1:1 0:1 32 0] [1] 0 0
s 20.007500000 _0_ AGT  --- 4 cbr 210 [0 0 0 0] ------- [0:0 1:0 32 0] [2] 0 0
r 20.007500000 _0_ RTR  --- 4 cbr 210 [0 0 0 0] ------- [0:0 1:0 32 0] [2] 0 0
s 20.007500000 _1_ AGT  --- 5 cbr 210 [0 0 0 0] ------- [1:1 0:1 32 0] [2] 0 0
r 20.007500000 _1_ RTR  --- 5 cbr 210 [0 0 0 0] ------- [1:1 0:1 32 0] [2] 0 0
s 20.011250000 _0_ AGT  --- 6 cbr 210 [0 0 0 0] ------- [0:0 1:0 32 0] [3] 0 0
r 20.011250000 _0_ RTR  --- 6 cbr 210 [0 0 0 0] ------- [0:0 1:0 32 0] [3] 0 0
s 20.011250000 _1_ AGT  --- 7 cbr 210 [0 0 0 0] ------- [1:1 0:1 32 0] [3] 0 0
r 20.011250000 _1_ RTR  --- 7 cbr 210 [0 0 0 0] ------- [1:1 0:1 32 0] [3] 0 0
s 20.015000000 _0_ AGT  --- 8 cbr 210 [0 0 0 0] ------- [0:0 1:0 32 0] [4] 0 0
r 20.015000000 _0_ RTR  --- 8 cbr 210 [0 0 0 0] ------- [0:0 1:0 32 0] [4] 0 0
s 20.015000000 _1_ AGT  --- 9 cbr 210 [0 0 0 0] ------- [1:1 0:1 32 0] [4] 0 0
r 20.015000000 _1_ RTR  --- 9 cbr 210 [0 0 0 0] ------- [1:1 0:1 32 0] [4] 0 0
s 20.018750000 _0_ AGT  --- 10 cbr 210 [0 0 0 0] ------- [0:0 1:0 32 0] [5] 0 0
r 20.018750000 _0_ RTR  --- 10 cbr 210 [0 0 0 0] ------- [0:0 1:0 32 0] [5] 0 0
s 20.018750000 _1_ AGT  --- 11 cbr 210 [0 0 0 0] ------- [1:1 0:1 32 0] [5] 0 0
r 20.018750000 _1_ RTR  --- 11 cbr 210 [0 0 0 0] ------- [1:1 0:1 32 0] [5] 0 0
s 20.022500000 _0_ AGT  --- 12 cbr 210 [0 0 0 0] ------- [0:0 1:0 32 0] [6] 0 0
r 20.022500000 _0_ RTR  --- 12 cbr 210 [0 0 0 0] ------- [0:0 1:0 32 0] [6] 0 0
s 20.022500000 _1_ AGT  --- 13 cbr 210 [0 0 0 0] ------- [1:1 0:1 32 0] [6] 0 0
r 20.022500000 _1_ RTR  --- 13 cbr 210 [0 0 0 0] ------- [1:1 0:1 32 0] [6] 0 0
s 20.026250000 _0_ AGT  --- 14 cbr 210 [0 0 0 0] ------- [0:0 1:0 32 0] [7] 0 0
r 20.026250000 _0_ RTR  --- 14 cbr 210 [0 0 0 0] ------- [0:0 1:0 32 0] [7] 0 0
s 20.026250000 _1_ AGT  --- 15 cbr 210 [0 0 0 0] ------- [1:1 0:1 32 0] [7] 0 0
r 20.026250000 _1_ RTR  --- 15 cbr 210 [0 0 0 0] ------- [1:1 0:1 32 0] [7] 0 0
s 20.030000000 _0_ AGT  --- 16 cbr 210 [0 0 0 0] ------- [0:0 1:0 32 0] [8] 0 0
r 20.030000000 _0_ RTR  --- 16 cbr 210 [0 0 0 0] ------- [0:0 1:0 32 0] [8] 0 0
s 20.030000000 _1_ AGT  --- 17 cbr 210 [0 0 0 0] ------- [1:1 0:1 32 0] [8] 0 0
r 20.030000000 _1_ RTR  --- 17 cbr 210 [0 0 0 0] ------- [1:1 0:1 32 0] [8] 0 0
s 20.033750000 _0_ AGT  --- 18 cbr 210 [0 0 0 0] ------- [0:0 1:0 32 0] [9] 0 0
r 20.033750000 _0_ RTR  --- 18 cbr 210 [0 0 0 0] ------- [0:0 1:0 32 0] [9] 0 0
s 20.033750000 _1_ AGT  --- 19 cbr 210 [0 0 0 0] ------- [1:1 0:1 32 0] [9] 0 0
r 20.033750000 _1_ RTR  --- 19 cbr 210 [0 0 0 0] ------- [1:1 0:1 32 0] [9] 0 0
s 20.037500000 _0_ AGT  --- 20 cbr 210 [0 0 0 0] ------- [0:0 1:0 32 0] [10] 0 0
r 20.037500000 _0_ RTR  --- 20 cbr 210 [0 0 0 0] ------- [0:0 1:0 32 0] [10] 0 0
s 20.037500000 _1_ AGT  --- 21 cbr 210 [0 0 0 0] ------- [1:1 0:1 32 0] [10] 0 0
r 20.037500000 _1_ RTR  --- 21 cbr 210 [0 0 0 0] ------- [1:1 0:1 32 0] [10] 0 0
s 20.041250000 _0_ AGT  --- 22 cbr 210 [0 0 0 0] ------- [0:0 1:0 32 0] [11] 0 0
r 20.041250000 _0_ RTR  --- 22 cbr 210 [0 0 0 0] ------- [0:0 1:0 32 0] [11] 0 0
s 20.041250000 _1_ AGT  --- 23 cbr 210 [0 0 0 0] ------- [1:1 0:1 32 0] [11] 0 0
r 20.041250000 _1_ RTR  --- 23 cbr 210 [0 0 0 0] ------- [1:1 0:1 32 0] [11] 0 0
s 20.045000000 _0_ AGT  --- 24 cbr 210 [0 0 0 0] ------- [0:0 1:0 32 0] [12] 0 0
r 20.045000000 _0_ RTR  --- 24 cbr 210 [0 0 0 0] ------- [0:0 1:0 32 0] [12] 0 0
s 20.045000000 _1_ AGT  --- 25 cbr 210 [0 0 0 0] ------- [1:1 0:1 32 0] [12] 0 0
r 20.045000000 _1_ RTR  --- 25 cbr 210 [0 0 0 0] ------- [1:1 0:1 32 0] [12] 0 0
s 20.048750000 _0_ AGT  --- 26 cbr 210 [0 0 0 0] ------- [0:0 1:0 32 0] [13] 0 0
r 20.048750000 _0_ RTR  --- 26 cbr 210 [0 0 0 0] ------- [0:0 1:0 32 0] [13] 0 0
s 20.048750000 _1_ AGT  --- 27 cbr 210 [0 0 0 0] ------- [1:1 0:1 32 0] [13] 0 0
r 20.048750000 _1_ RTR  --- 27 cbr 210 [0 0 0 0] ------- [1:1 0:1 32 0] [13] 0 0
s 20.052500000 _0_ AGT  --- 28 cbr 210 [0 0 0 0] ------- [0:0 1:0 32 0] [14] 0 0
r 20.052500000 _0_ RTR  --- 28 cbr 210 [0 0 0 0] ------- [0:0 1:0 32 0] [14] 0 0
s 20.052500000 _1_ AGT  --- 29 cbr 210 [0 0 0 0] ------- [1:1 0:1 32 0] [14] 0 0
r 20.052500000 _1_ RTR  --- 29 cbr 210 [0 0 0 0] ------- [1:1 0:1 32 0] [14] 0 0
s 20.056250000 _0_ AGT  --- 30 cbr 210 [0 0 0 0] ------- [0:0 1:0 32 0] [15] 0 0
r 20.056250000 _0_ RTR  --- 30 cbr 210 [0 0 0 0] ------- [0:0 1:0 32 0] [15] 0 0
s 20.056250000 _1_ AGT  --- 31 cbr 210 [0 0 0 0] ------- [1:1 0:1 32 0] [15] 0 0
r 20.056250000 _1_ RTR  --- 31 cbr 210 [0 0 0 0] ------- [1:1 0:1 32 0] [15] 0 0
s 20.060000000 _0_ AGT  --- 32 cbr 210 [0 0 0 0] ------- [0:0 1:0 32 0] [16] 0 0
r 20.060000000 _0_ RTR  --- 32 cbr 210 [0 0 0 0] ------- [0:0 1:0 32 0] [16] 0 0
s 20.060000000 _1_ AGT  --- 33 cbr 210 [0 0 0 0] ------- [1:1 0:1 32 0] [16] 0 0
r 20.060000000 _1_ RTR  --- 33 cbr 210 [0 0 0 0] ------- [1:1 0:1 32 0] [16] 0 0
s 20.063750000 _0_ AGT  --- 34 cbr 210 [0 0 0 0] ------- [0:0 1:0 32 0] [17] 0 0
r 20.063750000 _0_ RTR  --- 34 cbr 210 [0 0 0 0] ------- [0:0 1:0 32 0] [17] 0 0
s 20.063750000 _1_ AGT  --- 35 cbr 210 [0 0 0 0] ------- [1:1 0:1 32 0] [17] 0 0
r 20.063750000 _1_ RTR  --- 35 cbr 210 [0 0 0 0] ------- [1:1 0:1 32 0] [17] 0 0
s 20.067500000 _0_ AGT  --- 36 cbr 210 [0 0 0 0] ------- [0:0 1:0 32 0] [18] 0 0
r 20.067500000 _0_ RTR  --- 36 cbr 210 [0 0 0 0] ------- [0:0 1:0 32 0] [18] 0 0
s 20.067500000 _1_ AGT  --- 37 cbr 210 [0 0 0 0] ------- [1:1 0:1 32 0] [18] 0 0
r 20.067500000 _1_ RTR  --- 37 cbr 210 [0 0 0 0] ------- [1:1 0:1 32 0] [18] 0 0
s 20.071250000 _0_ AGT  --- 38 cbr 210 [0 0 0 0] ------- [0:0 1:0 32 0] [19] 0 0
r 20.071250000 _0_ RTR  --- 38 cbr 210 [0 0 0 0] ------- [0:0 1:0 32 0] [19] 0 0
s 20.071250000 _1_ AGT  --- 39 cbr 210 [0 0 0 0] ------- [1:1 0:1 32 0] [19] 0 0
r 20.071250000 _1_ RTR  --- 39 cbr 210 [0 0 0 0] ------- [1:1 0:1 32 0] [19] 0 0
s 20.075000000 _0_ AGT  --- 40 cbr 210 [0 0 0 0] ------- [0:0 1:0 32 0] [20] 0 0
r 20.075000000 _0_ RTR  --- 40 cbr 210 [0 0 0 0] ------- [0:0 1:0 32 0] [20] 0 0
s 20.075000000 _1_ AGT  --- 41 cbr 210 [0 0 0 0] ------- [1:1 0:1 32 0] [20] 0 0
r 20.075000000 _1_ RTR  --- 41 cbr 210 [0 0 0 0] ------- [1:1 0:1 32 0] [20] 0 0
s 20.078750000 _0_ AGT  --- 42 cbr 210 [0 0 0 0] ------- [0:0 1:0 32 0] [21] 0 0
r 20.078750000 _0_ RTR  --- 42 cbr 210 [0 0 0 0] ------- [0:0 1:0 32 0] [21] 0 0
s 20.078750000 _1_ AGT  --- 43 cbr 210 [0 0 0 0] ------- [1:1 0:1 32 0] [21] 0 0
r 20.078750000 _1_ RTR  --- 43 cbr 210 [0 0 0 0] ------- [1:1 0:1 32 0] [21] 0 0
s 20.082500000 _0_ AGT  --- 44 cbr 210 [0 0 0 0] ------- [0:0 1:0 32 0] [22] 0 0
r 20.082500000 _0_ RTR  --- 44 cbr 210 [0 0 0 0] ------- [0:0 1:0 32 0] [22] 0 0
s 20.082500000 _1_ AGT  --- 45 cbr 210 [0 0 0 0] ------- [1:1 0:1 32 0] [22] 0 0
r 20.082500000 _1_ RTR  --- 45 cbr 210 [0 0 0 0] ------- [1:1 0:1 32 0] [22] 0 0
s 20.086250000 _0_ AGT  --- 46 cbr 210 [0 0 0 0] ------- [0:0 1:0 32 0] [23] 0 0
r 20.086250000 _0_ RTR  --- 46 cbr 210 [0 0 0 0] ------- [0:0 1:0 32 0] [23] 0 0
s 20.086250000 _1_ AGT  --- 47 cbr 210 [0 0 0 0] ------- [1:1 0:1 32 0] [23] 0 0
r 20.086250000 _1_ RTR  --- 47 cbr 210 [0 0 0 0] ------- [1:1 0:1 32 0] [23] 0 0
s 20.090000000 _0_ AGT  --- 48 cbr 210 [0 0 0 0] ------- [0:0 1:0 32 0] [24] 0 0
r 20.090000000 _0_ RTR  --- 48 cbr 210 [0 0 0 0] ------- [0:0 1:0 32 0] [24] 0 0
s 20.090000000 _1_ AGT  --- 49 cbr 210 [0 0 0 0] ------- [1:1 0:1 32 0] [24] 0 0
r 20.090000000 _1_ RTR  --- 49 cbr 210 [0 0 0 0] ------- [1:1 0:1 32 0] [24] 0 0
s 20.093750000 _0_ AGT  --- 50 cbr 210 [0 0 0 0] ------- [0:0 1:0 32 0] [25] 0 0
r 20.093750000 _0_ RTR  --- 50 cbr 210 [0 0 0 0] ------- [0:0 1:0 32 0] [25] 0 0
s 20.093750000 _1_ AGT  --- 51 cbr 210 [0 0 0 0] ------- [1:1 0:1 32 0] [25] 0 0
r 20.093750000 _1_ RTR  --- 51 cbr 210 [0 0 0 0] ------- [1:1 0:1 32 0] [25] 0 0
s 20.097500000 _0_ AGT  --- 52 cbr 210 [0 0 0 0] ------- [0:0 1:0 32 0] [26] 0 0
r 20.097500000 _0_ RTR  --- 52 cbr 210 [0 0 0 0] ------- [0:0 1:0 32 0] [26] 0 0
s 20.097500000 _1_ AGT  --- 53 cbr 210 [0 0 0 0] ------- [1:1 0:1 32 0] [26] 0 0
r 20.097500000 _1_ RTR  --- 53 cbr 210 [0 0 0 0] ------- [1:1 0:1 32 0] [26] 0 0
s 20.101250000 _0_ AGT  --- 54 cbr 210 [0 0 0 0] ------- [0:0 1:0 32 0] [27] 0 0
r 20.101250000 _0_ RTR  --- 54 cbr 210 [0 0 0 0] ------- [0:0 1:0 32 0] [27] 0 0
s 20.101250000 _1_ AGT  --- 55 cbr 210 [0 0 0 0] ------- [1:1 0:1 32 0] [27] 0 0
r 20.101250000 _1_ RTR  --- 55 cbr 210 [0 0 0 0] ------- [1:1 0:1 32 0] [27] 0 0
s 20.105000000 _0_ AGT  --- 56 cbr 210 [0 0 0 0] ------- [0:0 1:0 32 0] [28] 0 0
r 20.105000000 _0_ RTR  --- 56 cbr 210 [0 0 0 0] ------- [0:0 1:0 32 0] [28] 0 0
s 20.105000000 _1_ AGT  --- 57 cbr 210 [0 0 0 0] ------- [1:1 0:1 32 0] [28] 0 0
r 20.105000000 _1_ RTR  --- 57 cbr 210 [0 0 0 0] ------- [1:1 0:1 32 0] [28] 0 0
s 20.108750000 _0_ AGT  --- 58 cbr 210 [0 0 0 0] ------- [0:0 1:0 32 0] [29] 0 0
r 20.108750000 _0_ RTR  --- 58 cbr 210 [0 0 0 0] ------- [0:0 1:0 32 0] [29] 0 0
s 20.108750000 _1_ AGT  --- 59 cbr 210 [0 0 0 0] ------- [1:1 0:1 32 0] [29] 0 0
r 20.108750000 _1_ RTR  --- 59 cbr 210 [0 0 0 0] ------- [1:1 0:1 32 0] [29] 0 0
s 20.112500000 _0_ AGT  --- 60 cbr 210 [0 0 0 0] ------- [0:0 1:0 32 0] [30] 0 0
r 20.112500000 _0_ RTR  --- 60 cbr 210 [0 0 0 0] ------- [0:0 1:0 32 0] [30] 0 0
s 20.112500000 _1_ AGT  --- 61 cbr 210 [0 0 0 0] ------- [1:1 0:1 32 0] [30] 0 0
r 20.112500000 _1_ RTR  --- 61 cbr 210 [0 0 0 0] ------- [1:1 0:1 32 0] [30] 0 0
s 20.116250000 _0_ AGT  --- 62 cbr 210 [0 0 0 0] ------- [0:0 1:0 32 0] [31] 0 0
r 20.116250000 _0_ RTR  --- 62 cbr 210 [0 0 0 0] ------- [0:0 1:0 32 0] [31] 0 0
s 20.116250000 _1_ AGT  --- 63 cbr 210 [0 0 0 0] ------- [1:1 0:1 32 0] [31] 0 0
r 20.116250000 _1_ RTR  --- 63 cbr 210 [0 0 0 0] ------- [1:1 0:1 32 0] [31] 0 0
s 20.120000000 _0_ AGT  --- 64 cbr 210 [0 0 0 0] ------- [0:0 1:0 32 0] [32] 0 0
r 20.120000000 _0_ RTR  --- 64 cbr 210 [0 0 0 0] ------- [0:0 1:0 32 0] [32] 0 0
s 20.120000000 _1_ AGT  --- 65 cbr 210 [0 0 0 0] ------- [1:1 0:1 32 0] [32] 0 0
r 20.120000000 _1_ RTR  --- 65 cbr 210 [0 0 0 0] ------- [1:1 0:1 32 0] [32] 0 0
s 20.123750000 _0_ AGT  --- 66 cbr 210 [0 0 0 0] ------- [0:0 1:0 32 0] [33] 0 0
r 20.123750000 _0_ RTR  --- 66 cbr 210 [0 0 0 0] ------- [0:0 1:0 32 0] [33] 0 0
s 20.123750000 _1_ AGT  --- 67 cbr 210 [0 0 0 0] ------- [1:1 0:1 32 0] [33] 0 0
r 20.123750000 _1_ RTR  --- 67 cbr 210 [0 0 0 0] ------- [1:1 0:1 32 0] [33] 0 0
s 20.127500000 _0_ AGT  --- 68 cbr 210 [0 0 0 0] ------- [0:0 1:0 32 0] [34] 0 0
r 20.127500000 _0_ RTR  --- 68 cbr 210 [0 0 0 0] ------- [0:0 1:0 32 0] [34] 0 0
s 20.127500000 _1_ AGT  --- 69 cbr 210 [0 0 0 0] ------- [1:1 0:1 32 0] [34] 0 0
r 20.127500000 _1_ RTR  --- 69 cbr 210 [0 0 0 0] ------- [1:1 0:1 32 0] [34] 0 0
s 20.131250000 _0_ AGT  --- 70 cbr 210 [0 0 0 0] ------- [0:0 1:0 32 0] [35] 0 0
r 20.131250000 _0_ RTR  --- 70 cbr 210 [0 0 0 0] ------- [0:0 1:0 32 0] [35] 0 0
s 20.131250000 _1_ AGT  --- 71 cbr 210 [0 0 0 0] ------- [1:1 0:1 32 0] [35] 0 0
r 20.131250000 _1_ RTR  --- 71 cbr 210 [0 0 0 0] ------- [1:1 0:1 32 0] [35] 0 0
s 20.135000000 _0_ AGT  --- 72 cbr 210 [0 0 0 0] ------- [0:0 1:0 32 0] [36] 0 0
r 20.135000000 _0_ RTR  --- 72 cbr 210 [0 0 0 0] ------- [0:0 1:0 32 0] [36] 0 0
s 20.135000000 _1_ AGT  --- 73 cbr 210 [0 0 0 0] ------- [1:1 0:1 32 0] [36] 0 0
r 20.135000000 _1_ RTR  --- 73 cbr 210 [0 0 0 0] ------- [1:1 0:1 32 0] [36] 0 0
s 20.138750000 _0_ AGT  --- 74 cbr 210 [0 0 0 0] ------- [0:0 1:0 32 0] [37] 0 0
r 20.138750000 _0_ RTR  --- 74 cbr 210 [0 0 0 0] ------- [0:0 1:0 32 0] [37] 0 0
s 20.138750000 _1_ AGT  --- 75 cbr 210 [0 0 0 0] ------- [1:1 0:1 32 0] [37] 0 0
r 20.138750000 _1_ RTR  --- 75 cbr 210 [0 0 0 0] ------- [1:1 0:1 32 0] [37] 0 0
s 20.142500000 _0_ AGT  --- 76 cbr 210 [0 0 0 0] ------- [0:0 1:0 32 0] [38] 0 0
r 20.142500000 _0_ RTR  --- 76 cbr 210 [0 0 0 0] ------- [0:0 1:0 32 0] [38] 0 0
s 20.142500000 _1_ AGT  --- 77 cbr 210 [0 0 0 0] ------- [1:1 0:1 32 0] [38] 0 0
r 20.142500000 _1_ RTR  --- 77 cbr 210 [0 0 0 0] ------- [1:1 0:1 32 0] [38] 0 0
s 20.146250000 _0_ AGT  --- 78 cbr 210 [0 0 0 0] ------- [0:0 1:0 32 0] [39] 0 0
r 20.146250000 _0_ RTR  --- 78 cbr 210 [0 0 0 0] ------- [0:0 1:0 32 0] [39] 0 0
s 20.146250000 _1_ AGT  --- 79 cbr 210 [0 0 0 0] ------- [1:1 0:1 32 0] [39] 0 0
r 20.146250000 _1_ RTR  --- 79 cbr 210 [0 0 0 0] ------- [1:1 0:1 32 0] [39] 0 0
s 20.150000000 _0_ AGT  --- 80 cbr 210 [0 0 0 0] ------- [0:0 1:0 32 0] [40] 0 0
r 20.150000000 _0_ RTR  --- 80 cbr 210 [0 0 0 0] ------- [0:0 1:0 32 0] [40] 0 0
s 20.150000000 _1_ AGT  --- 81 cbr 210 [0 0 0 0] ------- [1:1 0:1 32 0] [40] 0 0
r 20.150000000 _1_ RTR  --- 81 cbr 210 [0 0 0 0] ------- [1:1 0:1 32 0] [40] 0 0
s 20.153750000 _0_ AGT  --- 82 cbr 210 [0 0 0 0] ------- [0:0 1:0 32 0] [41] 0 0
r 20.153750000 _0_ RTR  --- 82 cbr 210 [0 0 0 0] ------- [0:0 1:0 32 0] [41] 0 0
s 20.153750000 _1_ AGT  --- 83 cbr 210 [0 0 0 0] ------- [1:1 0:1 32 0] [41] 0 0
r 20.153750000 _1_ RTR  --- 83 cbr 210 [0 0 0 0] ------- [1:1 0:1 32 0] [41] 0 0
s 20.157500000 _0_ AGT  --- 84 cbr 210 [0 0 0 0] ------- [0:0 1:0 32 0] [42] 0 0
r 20.157500000 _0_ RTR  --- 84 cbr 210 [0 0 0 0] ------- [0:0 1:0 32 0] [42] 0 0
s 20.157500000 _1_ AGT  --- 85 cbr 210 [0 0 0 0] ------- [1:1 0:1 32 0] [42] 0 0
r 20.157500000 _1_ RTR  --- 85 cbr 210 [0 0 0 0] ------- [1:1 0:1 32 0] [42] 0 0
s 20.161250000 _0_ AGT  --- 86 cbr 210 [0 0 0 0] ------- [0:0 1:0 32 0] [43] 0 0
r 20.161250000 _0_ RTR  --- 86 cbr 210 [0 0 0 0] ------- [0:0 1:0 32 0] [43] 0 0
s 20.161250000 _1_ AGT  --- 87 cbr 210 [0 0 0 0] ------- [1:1 0:1 32 0] [43] 0 0
r 20.161250000 _1_ RTR  --- 87 cbr 210 [0 0 0 0] ------- [1:1 0:1 32 0] [43] 0 0
s 20.165000000 _0_ AGT  --- 88 cbr 210 [0 0 0 0] ------- [0:0 1:0 32 0] [44] 0 0
r 20.165000000 _0_ RTR  --- 88 cbr 210 [0 0 0 0] ------- [0:0 1:0 32 0] [44] 0 0
s 20.165000000 _1_ AGT  --- 89 cbr 210 [0 0 0 0] ------- [1:1 0:1 32 0] [44] 0 0
r 20.165000000 _1_ RTR  --- 89 cbr 210 [0 0 0 0] ------- [1:1 0:1 32 0] [44] 0 0
s 20.168750000 _0_ AGT  --- 90 cbr 210 [0 0 0 0] ------- [0:0 1:0 32 0] [45] 0 0
r 20.168750000 _0_ RTR  --- 90 cbr 210 [0 0 0 0] ------- [0:0 1:0 32 0] [45] 0 0
s 20.168750000 _1_ AGT  --- 91 cbr 210 [0 0 0 0] ------- [1:1 0:1 32 0] [45] 0 0
r 20.168750000 _1_ RTR  --- 91 cbr 210 [0 0 0 0] ------- [1:1 0:1 32 0] [45] 0 0
s 20.172500000 _0_ AGT  --- 92 cbr 210 [0 0 0 0] ------- [0:0 1:0 32 0] [46] 0 0
r 20.172500000 _0_ RTR  --- 92 cbr 210 [0 0 0 0] ------- [0:0 1:0 32 0] [46] 0 0
s 20.172500000 _1_ AGT  --- 93 cbr 210 [0 0 0 0] ------- [1:1 0:1 32 0] [46] 0 0
r 20.172500000 _1_ RTR  --- 93 cbr 210 [0 0 0 0] ------- [1:1 0:1 32 0] [46] 0 0
s 20.176250000 _0_ AGT  --- 94 cbr 210 [0 0 0 0] ------- [0:0 1:0 32 0] [47] 0 0
r 20.176250000 _0_ RTR  --- 94 cbr 210 [0 0 0 0] ------- [0:0 1:0 32 0] [47] 0 0
s 20.176250000 _1_ AGT  --- 95 cbr 210 [0 0 0 0] ------- [1:1 0:1 32 0] [47] 0 0
r 20.176250000 _1_ RTR  --- 95 cbr 210 [0 0 0 0] ------- [1:1 0:1 32 0] [47] 0 0
s 20.180000000 _0_ AGT  --- 96 cbr 210 [0 0 0 0] ------- [0:0 1:0 32 0] [48] 0 0
r 20.180000000 _0_ RTR  --- 96 cbr 210 [0 0 0 0] ------- [0:0 1:0 32 0] [48] 0 0
s 20.180000000 _1_ AGT  --- 97 cbr 210 [0 0 0 0] ------- [1:1 0:1 32 0] [48] 0 0
r 20.180000000 _1_ RTR  --- 97 cbr 210 [0 0 0 0] ------- [1:1 0:1 32 0] [48] 0 0
s 20.183750000 _0_ AGT  --- 98 cbr 210 [0 0 0 0] ------- [0:0 1:0 32 0] [49] 0 0
r 20.183750000 _0_ RTR  --- 98 cbr 210 [0 0 0 0] ------- [0:0 1:0 32 0] [49] 0 0
s 20.183750000 _1_ AGT  --- 99 cbr 210 [0 0 0 0] ------- [1:1 0:1 32 0] [49] 0 0
r 20.183750000 _1_ RTR  --- 99 cbr 210 [0 0 0 0] ------- [1:1 0:1 32 0] [49] 0 0
s 20.187500000 _0_ AGT  --- 100 cbr 210 [0 0 0 0] ------- [0:0 1:0 32 0] [50] 0 0
r 20.187500000 _0_ RTR  --- 100 cbr 210 [0 0 0 0] ------- [0:0 1:0 32 0] [50] 0 0
s 20.187500000 _1_ AGT  --- 101 cbr 210 [0 0 0 0] ------- [1:1 0:1 32 0] [50] 0 0
r 20.187500000 _1_ RTR  --- 101 cbr 210 [0 0 0 0] ------- [1:1 0:1 32 0] [50] 0 0
s 20.191250000 _0_ AGT  --- 102 cbr 210 [0 0 0 0] ------- [0:0 1:0 32 0] [51] 0 0
r 20.191250000 _0_ RTR  --- 102 cbr 210 [0 0 0 0] ------- [0:0 1:0 32 0] [51] 0 0
s 20.191250000 _1_ AGT  --- 103 cbr 210 [0 0 0 0] ------- [1:1 0:1 32 0] [51] 0 0
r 20.191250000 _1_ RTR  --- 103 cbr 210 [0 0 0 0] ------- [1:1 0:1 32 0] [51] 0 0
s 20.195000000 _0_ AGT  --- 104 cbr 210 [0 0 0 0] ------- [0:0 1:0 32 0] [52] 0 0
r 20.195000000 _0_ RTR  --- 104 cbr 210 [0 0 0 0] ------- [0:0 1:0 32 0] [52] 0 0
s 20.195000000 _1_ AGT  --- 105 cbr 210 [0 0 0 0] ------- [1:1 0:1 32 0] [52] 0 0
r 20.195000000 _1_ RTR  --- 105 cbr 210 [0 0 0 0] ------- [1:1 0:1 32 0] [52] 0 0
s 20.198750000 _0_ AGT  --- 106 cbr 210 [0 0 0 0] ------- [0:0 1:0 32 0] [53] 0 0
r 20.198750000 _0_ RTR  --- 106 cbr 210 [0 0 0 0] ------- [0:0 1:0 32 0] [53] 0 0
s 20.198750000 _1_ AGT  --- 107 cbr 210 [0 0 0 0] ------- [1:1 0:1 32 0] [53] 0 0
r 20.198750000 _1_ RTR  --- 107 cbr 210 [0 0 0 0] ------- [1:1 0:1 32 0] [53] 0 0
s 20.202500000 _0_ AGT  --- 108 cbr 210 [0 0 0 0] ------- [0:0 1:0 32 0] [54] 0 0
r 20.202500000 _0_ RTR  --- 108 cbr 210 [0 0 0 0] ------- [0:0 1:0 32 0] [54] 0 0
s 20.202500000 _1_ AGT  --- 109 cbr 210 [0 0 0 0] ------- [1:1 0:1 32 0] [54] 0 0
r 20.202500000 _1_ RTR  --- 109 cbr 210 [0 0 0 0] ------- [1:1 0:1 32 0] [54] 0 0
s 20.206250000 _0_ AGT  --- 110 cbr 210 [0 0 0 0] ------- [0:0 1:0 32 0] [55] 0 0
r 20.206250000 _0_ RTR  --- 110 cbr 210 [0 0 0 0] ------- [0:0 1:0 32 0] [55] 0 0
s 20.206250000 _1_ AGT  --- 111 cbr 210 [0 0 0 0] ------- [1:1 0:1 32 0] [55] 0 0
r 20.206250000 _1_ RTR  --- 111 cbr 210 [0 0 0 0] ------- [1:1 0:1 32 0] [55] 0 0
s 20.210000000 _0_ AGT  --- 112 cbr 210 [0 0 0 0] ------- [0:0 1:0 32 0] [56] 0 0
r 20.210000000 _0_ RTR  --- 112 cbr 210 [0 0 0 0] ------- [0:0 1:0 32 0] [56] 0 0
s 20.210000000 _1_ AGT  --- 113 cbr 210 [0 0 0 0] ------- [1:1 0:1 32 0] [56] 0 0
r 20.210000000 _1_ RTR  --- 113 cbr 210 [0 0 0 0] ------- [1:1 0:1 32 0] [56] 0 0
s 20.213750000 _0_ AGT  --- 114 cbr 210 [0 0 0 0] ------- [0:0 1:0 32 0] [57] 0 0
r 20.213750000 _0_ RTR  --- 114 cbr 210 [0 0 0 0] ------- [0:0 1:0 32 0] [57] 0 0
s 20.213750000 _1_ AGT  --- 115 cbr 210 [0 0 0 0] ------- [1:1 0:1 32 0] [57] 0 0
r 20.213750000 _1_ RTR  --- 115 cbr 210 [0 0 0 0] ------- [1:1 0:1 32 0] [57] 0 0
s 20.217500000 _0_ AGT  --- 116 cbr 210 [0 0 0 0] ------- [0:0 1:0 32 0] [58] 0 0
r 20.217500000 _0_ RTR  --- 116 cbr 210 [0 0 0 0] ------- [0:0 1:0 32 0] [58] 0 0
s 20.217500000 _1_ AGT  --- 117 cbr 210 [0 0 0 0] ------- [1:1 0:1 32 0] [58] 0 0
r 20.217500000 _1_ RTR  --- 117 cbr 210 [0 0 0 0] ------- [1:1 0:1 32 0] [58] 0 0
s 20.221250000 _0_ AGT  --- 118 cbr 210 [0 0 0 0] ------- [0:0 1:0 32 0] [59] 0 0
r 20.221250000 _0_ RTR  --- 118 cbr 210 [0 0 0 0] ------- [0:0 1:0 32 0] [59] 0 0
s 20.221250000 _1_ AGT  --- 119 cbr 210 [0 0 0 0] ------- [1:1 0:1 32 0] [59] 0 0
r 20.221250000 _1_ RTR  --- 119 cbr 210 [0 0 0 0] ------- [1:1 0:1 32 0] [59] 0 0
s 20.225000000 _0_ AGT  --- 120 cbr 210 [0 0 0 0] ------- [0:0 1:0 32 0] [60] 0 0
r 20.225000000 _0_ RTR  --- 120 cbr 210 [0 0 0 0] ------- [0:0 1:0 32 0] [60] 0 0
s 20.225000000 _1_ AGT  --- 121 cbr 210 [0 0 0 0] ------- [1:1 0:1 32 0] [60] 0 0
r 20.225000000 _1_ RTR  --- 121 cbr 210 [0 0 0 0] ------- [1:1 0:1 32 0] [60] 0 0
s 20.228750000 _0_ AGT  --- 122 cbr 210 [0 0 0 0] ------- [0:0 1:0 32 0] [61] 0 0
r 20.228750000 _0_ RTR  --- 122 cbr 210 [0 0 0 0] ------- [0:0 1:0 32 0] [61] 0 0
s 20.228750000 _1_ AGT  --- 123 cbr 210 [0 0 0 0] ------- [1:1 0:1 32 0] [61] 0 0
r 20.228750000 _1_ RTR  --- 123 cbr 210 [0 0 0 0] ------- [1:1 0:1 32 0] [61] 0 0
s 20.232500000 _0_ AGT  --- 124 cbr 210 [0 0 0 0] ------- [0:0 1:0 32 0] [62] 0 0
r 20.232500000 _0_ RTR  --- 124 cbr 210 [0 0 0 0] ------- [0:0 1:0 32 0] [62] 0 0
s 20.232500000 _1_ AGT  --- 125 cbr 210 [0 0 0 0] ------- [1:1 0:1 32 0] [62] 0 0
r 20.232500000 _1_ RTR  --- 125 cbr 210 [0 0 0 0] ------- [1:1 0:1 32 0] [62] 0 0
s 20.236250000 _0_ AGT  --- 126 cbr 210 [0 0 0 0] ------- [0:0 1:0 32 0] [63] 0 0
r 20.236250000 _0_ RTR  --- 126 cbr 210 [0 0 0 0] ------- [0:0 1:0 32 0] [63] 0 0
s 20.236250000 _1_ AGT  --- 127 cbr 210 [0 0 0 0] ------- [1:1 0:1 32 0] [63] 0 0
r 20.236250000 _1_ RTR  --- 127 cbr 210 [0 0 0 0] ------- [1:1 0:1 32 0] [63] 0 0
s 20.240000000 _0_ AGT  --- 128 cbr 210 [0 0 0 0] ------- [0:0 1:0 32 0] [64] 0 0
r 20.240000000 _0_ RTR  --- 128 cbr 210 [0 0 0 0] ------- [0:0 1:0 32 0] [64] 0 0
s 20.240000000 _1_ AGT  --- 129 cbr 210 [0 0 0 0] ------- [1:1 0:1 32 0] [64] 0 0
r 20.240000000 _1_ RTR  --- 129 cbr 210 [0 0 0 0] ------- [1:1 0:1 32 0] [64] 0 0
s 20.243750000 _0_ AGT  --- 130 cbr 210 [0 0 0 0] ------- [0:0 1:0 32 0] [65] 0 0
r 20.243750000 _0_ RTR  --- 130 cbr 210 [0 0 0 0] ------- [0:0 1:0 32 0] [65] 0 0
s 20.243750000 _1_ AGT  --- 131 cbr 210 [0 0 0 0] ------- [1:1 0:1 32 0] [65] 0 0
r 20.243750000 _1_ RTR  --- 131 cbr 210 [0 0 0 0] ------- [1:1 0:1 32 0] [65] 0 0
s 20.247500000 _0_ AGT  --- 132 cbr 210 [0 0 0 0] ------- [0:0 1:0 32 0] [66] 0 0
r 20.247500000 _0_ RTR  --- 132 cbr 210 [0 0 0 0] ------- [0:0 1:0 32 0] [66] 0 0
s 20.247500000 _1_ AGT  --- 133 cbr 210 [0 0 0 0] ------- [1:1 0:1 32 0] [66] 0 0
r 20.247500000 _1_ RTR  --- 133 cbr 210 [0 0 0 0] ------- [1:1 0:1 32 0] [66] 0 0
s 20.251250000 _0_ AGT  --- 134 cbr 210 [0 0 0 0] ------- [0:0 1:0 32 0] [67] 0 0
r 20.251250000 _0_ RTR  --- 134 cbr 210 [0 0 0 0] ------- [0:0 1:0 32 0] [67] 0 0
s 20.251250000 _1_ AGT  --- 135 cbr 210 [0 0 0 0] ------- [1:1 0:1 32 0] [67] 0 0
r 20.251250000 _1_ RTR  --- 135 cbr 210 [0 0 0 0] ------- [1:1 0:1 32 0] [67] 0 0
s 20.255000000 _0_ AGT  --- 136 cbr 210 [0 0 0 0] ------- [0:0 1:0 32 0] [68] 0 0
r 20.255000000 _0_ RTR  --- 136 cbr 210 [0 0 0 0] ------- [0:0 1:0 32 0] [68] 0 0
s 20.255000000 _1_ AGT  --- 137 cbr 210 [0 0 0 0] ------- [1:1 0:1 32 0] [68] 0 0
r 20.255000000 _1_ RTR  --- 137 cbr 210 [0 0 0 0] ------- [1:1 0:1 32 0] [68] 0 0
s 20.258750000 _0_ AGT  --- 138 cbr 210 [0 0 0 0] ------- [0:0 1:0 32 0] [69] 0 0
r 20.258750000 _0_ RTR  --- 138 cbr 210 [0 0 0 0] ------- [0:0 1:0 32 0] [69] 0 0
s 20.258750000 _1_ AGT  --- 139 cbr 210 [0 0 0 0] ------- [1:1 0:1 32 0] [69] 0 0
r 20.258750000 _1_ RTR  --- 139 cbr 210 [0 0 0 0] ------- [1:1 0:1 32 0] [69] 0 0
s 20.262500000 _0_ AGT  --- 140 cbr 210 [0 0 0 0] ------- [0:0 1:0 32 0] [70] 0 0
r 20.262500000 _0_ RTR  --- 140 cbr 210 [0 0 0 0] ------- [0:0 1:0 32 0] [70] 0 0
s 20.262500000 _1_ AGT  --- 141 cbr 210 [0 0 0 0] ------- [1:1 0:1 32 0] [70] 0 0
r 20.262500000 _1_ RTR  --- 141 cbr 210 [0 0 0 0] ------- [1:1 0:1 32 0] [70] 0 0
s 20.266250000 _0_ AGT  --- 142 cbr 210 [0 0 0 0] ------- [0:0 1:0 32 0] [71] 0 0
r 20.266250000 _0_ RTR  --- 142 cbr 210 [0 0 0 0] ------- [0:0 1:0 32 0] [71] 0 0
s 20.266250000 _1_ AGT  --- 143 cbr 210 [0 0 0 0] ------- [1:1 0:1 32 0] [71] 0 0
r 20.266250000 _1_ RTR  --- 143 cbr 210 [0 0 0 0] ------- [1:1 0:1 32 0] [71] 0 0
s 20.270000000 _0_ AGT  --- 144 cbr 210 [0 0 0 0] ------- [0:0 1:0 32 0] [72] 0 0
r 20.270000000 _0_ RTR  --- 144 cbr 210 [0 0 0 0] ------- [0:0 1:0 32 0] [72] 0 0
s 20.270000000 _1_ AGT  --- 145 cbr 210 [0 0 0 0] ------- [1:1 0:1 32 0] [72] 0 0
r 20.270000000 _1_ RTR  --- 145 cbr 210 [0 0 0 0] ------- [1:1 0:1 32 0] [72] 0 0
s 20.273750000 _0_ AGT  --- 146 cbr 210 [0 0 0 0] ------- [0:0 1:0 32 0] [73] 0 0
r 20.273750000 _0_ RTR  --- 146 cbr 210 [0 0 0 0] ------- [0:0 1:0 32 0] [73] 0 0
s 20.273750000 _1_ AGT  --- 147 cbr 210 [0 0 0 0] ------- [1:1 0:1 32 0] [73] 0 0
r 20.273750000 _1_ RTR  --- 147 cbr 210 [0 0 0 0] ------- [1:1 0:1 32 0] [73] 0 0
s 20.277500000 _0_ AGT  --- 148 cbr 210 [0 0 0 0] ------- [0:0 1:0 32 0] [74] 0 0
r 20.277500000 _0_ RTR  --- 148 cbr 210 [0 0 0 0] ------- [0:0 1:0 32 0] [74] 0 0
s 20.277500000 _1_ AGT  --- 149 cbr 210 [0 0 0 0] ------- [1:1 0:1 32 0] [74] 0 0
r 20.277500000 _1_ RTR  --- 149 cbr 210 [0 0 0 0] ------- [1:1 0:1 32 0] [74] 0 0
s 20.281250000 _0_ AGT  --- 150 cbr 210 [0 0 0 0] ------- [0:0 1:0 32 0] [75] 0 0
r 20.281250000 _0_ RTR  --- 150 cbr 210 [0 0 0 0] ------- [0:0 1:0 32 0] [75] 0 0
s 20.281250000 _1_ AGT  --- 151 cbr 210 [0 0 0 0] ------- [1:1 0:1 32 0] [75] 0 0
r 20.281250000 _1_ RTR  --- 151 cbr 210 [0 0 0 0] ------- [1:1 0:1 32 0] [75] 0 0
s 20.285000000 _0_ AGT  --- 152 cbr 210 [0 0 0 0] ------- [0:0 1:0 32 0] [76] 0 0
r 20.285000000 _0_ RTR  --- 152 cbr 210 [0 0 0 0] ------- [0:0 1:0 32 0] [76] 0 0
s 20.285000000 _1_ AGT  --- 153 cbr 210 [0 0 0 0] ------- [1:1 0:1 32 0] [76] 0 0
r 20.285000000 _1_ RTR  --- 153 cbr 210 [0 0 0 0] ------- [1:1 0:1 32 0] [76] 0 0
s 20.288750000 _0_ AGT  --- 154 cbr 210 [0 0 0 0] ------- [0:0 1:0 32 0] [77] 0 0
r 20.288750000 _0_ RTR  --- 154 cbr 210 [0 0 0 0] ------- [0:0 1:0 32 0] [77] 0 0
s 20.288750000 _1_ AGT  --- 155 cbr 210 [0 0 0 0] ------- [1:1 0:1 32 0] [77] 0 0
r 20.288750000 _1_ RTR  --- 155 cbr 210 [0 0 0 0] ------- [1:1 0:1 32 0] [77] 0 0
s 20.292500000 _0_ AGT  --- 156 cbr 210 [0 0 0 0] ------- [0:0 1:0 32 0] [78] 0 0
r 20.292500000 _0_ RTR  --- 156 cbr 210 [0 0 0 0] ------- [0:0 1:0 32 0] [78] 0 0
s 20.292500000 _1_ AGT  --- 157 cbr 210 [0 0 0 0] ------- [1:1 0:1 32 0] [78] 0 0
r 20.292500000 _1_ RTR  --- 157 cbr 210 [0 0 0 0] ------- [1:1 0:1 32 0] [78] 0 0
s 20.296250000 _0_ AGT  --- 158 cbr 210 [0 0 0 0] ------- [0:0 1:0 32 0] [79] 0 0
r 20.296250000 _0_ RTR  --- 158 cbr 210 [0 0 0 0] ------- [0:0 1:0 32 0] [79] 0 0
s 20.296250000 _1_ AGT  --- 159 cbr 210 [0 0 0 0] ------- [1:1 0:1 32 0] [79] 0 0
r 20.296250000 _1_ RTR  --- 159 cbr 210 [0 0 0 0] ------- [1:1 0:1 32 0] [79] 0 0
s 20.300000000 _0_ AGT  --- 160 cbr 210 [0 0 0 0] ------- [0:0 1:0 32 0] [80] 0 0
r 20.300000000 _0_ RTR  --- 160 cbr 210 [0 0 0 0] ------- [0:0 1:0 32 0] [80] 0 0
s 20.300000000 _1_ AGT  --- 161 cbr 210 [0 0 0 0] ------- [1:1 0:1 32 0] [80] 0 0
r 20.300000000 _1_ RTR  --- 161 cbr 210 [0 0 0 0] ------- [1:1 0:1 32 0] [80] 0 0
s 20.303750000 _0_ AGT  --- 162 cbr 210 [0 0 0 0] ------- [0:0 1:0 32 0] [81] 0 0
r 20.303750000 _0_ RTR  --- 162 cbr 210 [0 0 0 0] ------- [0:0 1:0 32 0] [81] 0 0
s 20.303750000 _1_ AGT  --- 163 cbr 210 [0 0 0 0] ------- [1:1 0:1 32 0] [81] 0 0
r 20.303750000 _1_ RTR  --- 163 cbr 210 [0 0 0 0] ------- [1:1 0:1 32 0] [81] 0 0
s 20.307500000 _0_ AGT  --- 164 cbr 210 [0 0 0 0] ------- [0:0 1:0 32 0] [82] 0 0
r 20.307500000 _0_ RTR  --- 164 cbr 210 [0 0 0 0] ------- [0:0 1:0 32 0] [82] 0 0
s 20.307500000 _1_ AGT  --- 165 cbr 210 [0 0 0 0] ------- [1:1 0:1 32 0] [82] 0 0
r 20.307500000 _1_ RTR  --- 165 cbr 210 [0 0 0 0] ------- [1:1 0:1 32 0] [82] 0 0
s 20.311250000 _0_ AGT  --- 166 cbr 210 [0 0 0 0] ------- [0:0 1:0 32 0] [83] 0 0
r 20.311250000 _0_ RTR  --- 166 cbr 210 [0 0 0 0] ------- [0:0 1:0 32 0] [83] 0 0
s 20.311250000 _1_ AGT  --- 167 cbr 210 [0 0 0 0] ------- [1:1 0:1 32 0] [83] 0 0
r 20.311250000 _1_ RTR  --- 167 cbr 210 [0 0 0 0] ------- [1:1 0:1 32 0] [83] 0 0
s 20.315000000 _0_ AGT  --- 168 cbr 210 [0 0 0 0] ------- [0:0 1:0 32 0] [84] 0 0
r 20.315000000 _0_ RTR  --- 168 cbr 210 [0 0 0 0] ------- [0:0 1:0 32 0] [84] 0 0
s 20.315000000 _1_ AGT  --- 169 cbr 210 [0 0 0 0] ------- [1:1 0:1 32 0] [84] 0 0
r 20.315000000 _1_ RTR  --- 169 cbr 210 [0 0 0 0] ------- [1:1 0:1 32 0] [84] 0 0
s 20.318750000 _0_ AGT  --- 170 cbr 210 [0 0 0 0] ------- [0:0 1:0 32 0] [85] 0 0
r 20.318750000 _0_ RTR  --- 170 cbr 210 [0 0 0 0] ------- [0:0 1:0 32 0] [85] 0 0
s 20.318750000 _1_ AGT  --- 171 cbr 210 [0 0 0 0] ------- [1:1 0:1 32 0] [85] 0 0
r 20.318750000 _1_ RTR  --- 171 cbr 210 [0 0 0 0] ------- [1:1 0:1 32 0] [85] 0 0
s 20.322500000 _0_ AGT  --- 172 cbr 210 [0 0 0 0] ------- [0:0 1:0 32 0] [86] 0 0
r 20.322500000 _0_ RTR  --- 172 cbr 210 [0 0 0 0] ------- [0:0 1:0 32 0] [86] 0 0
s 20.322500000 _1_ AGT  --- 173 cbr 210 [0 0 0 0] ------- [1:1 0:1 32 0] [86] 0 0
r 20.322500000 _1_ RTR  --- 173 cbr 210 [0 0 0 0] ------- [1:1 0:1 32 0] [86] 0 0
s 20.326250000 _0_ AGT  --- 174 cbr 210 [0 0 0 0] ------- [0:0 1:0 32 0] [87] 0 0
r 20.326250000 _0_ RTR  --- 174 cbr 210 [0 0 0 0] ------- [0:0 1:0 32 0] [87] 0 0
s 20.326250000 _1_ AGT  --- 175 cbr 210 [0 0 0 0] ------- [1:1 0:1 32 0] [87] 0 0
r 20.326250000 _1_ RTR  --- 175 cbr 210 [0 0 0 0] ------- [1:1 0:1 32 0] [87] 0 0
s 20.330000000 _0_ AGT  --- 176 cbr 210 [0 0 0 0] ------- [0:0 1:0 32 0] [88] 0 0
r 20.330000000 _0_ RTR  --- 176 cbr 210 [0 0 0 0] ------- [0:0 1:0 32 0] [88] 0 0
s 20.330000000 _1_ AGT  --- 177 cbr 210 [0 0 0 0] ------- [1:1 0:1 32 0] [88] 0 0
r 20.330000000 _1_ RTR  --- 177 cbr 210 [0 0 0 0] ------- [1:1 0:1 32 0] [88] 0 0
s 20.333750000 _0_ AGT  --- 178 cbr 210 [0 0 0 0] ------- [0:0 1:0 32 0] [89] 0 0
r 20.333750000 _0_ RTR  --- 178 cbr 210 [0 0 0 0] ------- [0:0 1:0 32 0] [89] 0 0
s 20.333750000 _1_ AGT  --- 179 cbr 210 [0 0 0 0] ------- [1:1 0:1 32 0] [89] 0 0
r 20.333750000 _1_ RTR  --- 179 cbr 210 [0 0 0 0] ------- [1:1 0:1 32 0] [89] 0 0
s 20.337500000 _0_ AGT  --- 180 cbr 210 [0 0 0 0] ------- [0:0 1:0 32 0] [90] 0 0
r 20.337500000 _0_ RTR  --- 180 cbr 210 [0 0 0 0] ------- [0:0 1:0 32 0] [90] 0 0
s 20.337500000 _1_ AGT  --- 181 cbr 210 [0 0 0 0] ------- [1:1 0:1 32 0] [90] 0 0
r 20.337500000 _1_ RTR  --- 181 cbr 210 [0 0 0 0] ------- [1:1 0:1 32 0] [90] 0 0
s 20.341250000 _0_ AGT  --- 182 cbr 210 [0 0 0 0] ------- [0:0 1:0 32 0] [91] 0 0
r 20.341250000 _0_ RTR  --- 182 cbr 210 [0 0 0 0] ------- [0:0 1:0 32 0] [91] 0 0
s 20.341250000 _1_ AGT  --- 183 cbr 210 [0 0 0 0] ------- [1:1 0:1 32 0] [91] 0 0
r 20.341250000 _1_ RTR  --- 183 cbr 210 [0 0 0 0] ------- [1:1 0:1 32 0] [91] 0 0
s 20.345000000 _0_ AGT  --- 184 cbr 210 [0 0 0 0] ------- [0:0 1:0 32 0] [92] 0 0