+ 0.4 0 1 cbr 210 ------- 1 0.2 1073741824.0 0 0
- 0.4 0 1 cbr 210 ------- 1 0.2 1073741824.0 0 0
+ 0.40375 0 1 cbr 210 ------- 1 0.2 1073741824.0 1 1
- 0.4056 0 1 cbr 210 ------- 1 0.2 1073741824.0 1 1
+ 0.4075 0 1 cbr 210 ------- 1 0.2 1073741824.0 2 2
- 0.4112 0 1 cbr 210 ------- 1 0.2 1073741824.0 2 2
+ 0.41125 0 1 cbr 210 ------- 1 0.2 1073741824.0 3 3
+ 0.415 0 1 cbr 210 ------- 1 0.2 1073741824.0 4 4
r 0.4156 0 1 cbr 210 ------- 1 0.2 1073741824.0 0 0
- 0.4168 0 1 cbr 210 ------- 1 0.2 1073741824.0 3 3
+ 0.41875 0 1 cbr 210 ------- 1 0.2 1073741824.0 5 5
r 0.4212 0 1 cbr 210 ------- 1 0.2 1073741824.0 1 1
- 0.4224 0 1 cbr 210 ------- 1 0.2 1073741824.0 4 4
+ 0.4225 0 1 cbr 210 ------- 1 0.2 1073741824.0 6 6
+ 0.42625 0 1 cbr 210 ------- 1 0.2 1073741824.0 7 7
r 0.4268 0 1 cbr 210 ------- 1 0.2 1073741824.0 2 2
- 0.428 0 1 cbr 210 ------- 1 0.2 1073741824.0 5 5
+ 0.43 0 1 cbr 210 ------- 1 0.2 1073741824.0 8 8
r 0.4324 0 1 cbr 210 ------- 1 0.2 1073741824.0 3 3
- 0.4336 0 1 cbr 210 ------- 1 0.2 1073741824.0 6 6
+ 0.43375 0 1 cbr 210 ------- 1 0.2 1073741824.0 9 9
+ 0.4375 0 1 cbr 210 ------- 1 0.2 1073741824.0 10 10
r 0.438 0 1 cbr 210 ------- 1 0.2 1073741824.0 4 4
- 0.4392 0 1 cbr 210 ------- 1 0.2 1073741824.0 7 7
+ 0.44125 0 1 cbr 210 ------- 1 0.2 1073741824.0 11 11
r 0.4436 0 1 cbr 210 ------- 1 0.2 1073741824.0 5 5
- 0.4448 0 1 cbr 210 ------- 1 0.2 1073741824.0 8 8
+ 0.445 0 1 cbr 210 ------- 1 0.2 1073741824.0 12 12
+ 0.44875 0 1 cbr 210 ------- 1 0.2 1073741824.0 13 13
r 0.4492 0 1 cbr 210 ------- 1 0.2 1073741824.0 6 6
- 0.4504 0 1 cbr 210 ------- 1 0.2 1073741824.0 9 9
+ 0.4525 0 1 cbr 210 ------- 1 0.2 1073741824.0 14 14
r 0.4548 0 1 cbr 210 ------- 1 0.2 1073741824.0 7 7
- 0.456 0 1 cbr 210 ------- 1 0.2 1073741824.0 10 10
+ 0.45625 0 1 cbr 210 ------- 1 0.2 1073741824.0 15 15
+ 0.46 0 1 cbr 210 ------- 1 0.2 1073741824.0 16 16
r 0.4604 0 1 cbr 210 ------- 1 0.2 1073741824.0 8 8
- 0.4616 0 1 cbr 210 ------- 1 0.2 1073741824.0 11 11
+ 0.46375 0 1 cbr 210 ------- 1 0.2 1073741824.0 17 17
r 0.466 0 1 cbr 210 ------- 1 0.2 1073741824.0 9 9
- 0.4672 0 1 cbr 210 ------- 1 0.2 1073741824.0 12 12
+ 0.4675 0 1 cbr 210 ------- 1 0.2 1073741824.0 18 18
+ 0.47125 0 1 cbr 210 ------- 1 0.2 1073741824.0 19 19
r 0.4716 0 1 cbr 210 ------- 1 0.2 1073741824.0 10 10
- 0.4728 0 1 cbr 210 ------- 1 0.2 1073741824.0 13 13
+ 0.475 0 1 cbr 210 ------- 1 0.2 1073741824.0 20 20
r 0.4772 0 1 cbr 210 ------- 1 0.2 1073741824.0 11 11
- 0.4784 0 1 cbr 210 ------- 1 0.2 1073741824.0 14 14
+ 0.47875 0 1 cbr 210 ------- 1 0.2 1073741824.0 21 21
+ 0.4825 0 1 cbr 210 ------- 1 0.2 1073741824.0 22 22
r 0.4828 0 1 cbr 210 ------- 1 0.2 1073741824.0 12 12
- 0.484 0 1 cbr 210 ------- 1 0.2 1073741824.0 15 15
+ 0.48625 0 1 cbr 210 ------- 1 0.2 1073741824.0 23 23
r 0.4884 0 1 cbr 210 ------- 1 0.2 1073741824.0 13 13
- 0.4896 0 1 cbr 210 ------- 1 0.2 1073741824.0 16 16
+ 0.49 0 1 cbr 210 ------- 1 0.2 1073741824.0 24 24
+ 0.49375 0 1 cbr 210 ------- 1 0.2 1073741824.0 25 25
r 0.494 0 1 cbr 210 ------- 1 0.2 1073741824.0 14 14
- 0.4952 0 1 cbr 210 ------- 1 0.2 1073741824.0 17 17
+ 0.4975 0 1 cbr 210 ------- 1 0.2 1073741824.0 26 26
r 0.4996 0 1 cbr 210 ------- 1 0.2 1073741824.0 15 15
- 0.5008 0 1 cbr 210 ------- 1 0.2 1073741824.0 18 18
+ 0.50125 0 1 cbr 210 ------- 1 0.2 1073741824.0 27 27
+ 0.505 0 1 cbr 210 ------- 1 0.2 1073741824.0 28 28
r 0.5052 0 1 cbr 210 ------- 1 0.2 1073741824.0 16 16
- 0.5064 0 1 cbr 210 ------- 1 0.2 1073741824.0 19 19
+ 0.50875 0 1 cbr 210 ------- 1 0.2 1073741824.0 29 29
r 0.5108 0 1 cbr 210 ------- 1 0.2 1073741824.0 17 17
- 0.512 0 1 cbr 210 ------- 1 0.2 1073741824.0 20 20
+ 0.5125 0 1 cbr 210 ------- 1 0.2 1073741824.0 30 30
+ 0.51625 0 1 cbr 210 ------- 1 0.2 1073741824.0 31 31
r 0.5164 0 1 cbr 210 ------- 1 0.2 1073741824.0 18 18
- 0.5176 0 1 cbr 210 ------- 1 0.2 1073741824.0 21 21
+ 0.52 0 1 cbr 210 ------- 1 0.2 1073741824.0 32 32
r 0.522 0 1 cbr 210 ------- 1 0.2 1073741824.0 19 19
- 0.5232 0 1 cbr 210 ------- 1 0.2 1073741824.0 22 22
+ 0.52375 0 1 cbr 210 ------- 1 0.2 1073741824.0 33 33
+ 0.5275 0 1 cbr 210 ------- 1 0.2 1073741824.0 34 34
r 0.5276 0 1 cbr 210 ------- 1 0.2 1073741824.0 20 20
- 0.5288 0 1 cbr 210 ------- 1 0.2 1073741824.0 23 23
+ 0.53125 0 1 cbr 210 ------- 1 0.2 1073741824.0 35 35
r 0.5332 0 1 cbr 210 ------- 1 0.2 1073741824.0 21 21
- 0.5344 0 1 cbr 210 ------- 1 0.2 1073741824.0 24 24
+ 0.535 0 1 cbr 210 ------- 1 0.2 1073741824.0 36 36
+ 0.53875 0 1 cbr 210 ------- 1 0.2 1073741824.0 37 37
r 0.5388 0 1 cbr 210 ------- 1 0.2 1073741824.0 22 22
- 0.54 0 1 cbr 210 ------- 1 0.2 1073741824.0 25 25
+ 0.5425 0 1 cbr 210 ------- 1 0.2 1073741824.0 38 38
r 0.5444 0 1 cbr 210 ------- 1 0.2 1073741824.0 23 23
- 0.5456 0 1 cbr 210 ------- 1 0.2 1073741824.0 26 26
+ 0.54625 0 1 cbr 210 ------- 1 0.2 1073741824.0 39 39
+ 0.55 0 1 cbr 210 ------- 1 0.2 1073741824.0 40 40
r 0.55 0 1 cbr 210 ------- 1 0.2 1073741824.0 24 24
- 0.5512 0 1 cbr 210 ------- 1 0.2 1073741824.0 27 27
+ 0.55375 0 1 cbr 210 ------- 1 0.2 1073741824.0 41 41
r 0.5556 0 1 cbr 210 ------- 1 0.2 1073741824.0 25 25
- 0.5568 0 1 cbr 210 ------- 1 0.2 1073741824.0 28 28
+ 0.5575 0 1 cbr 210 ------- 1 0.2 1073741824.0 42 42
r 0.5612 0 1 cbr 210 ------- 1 0.2 1073741824.0 26 26
+ 0.56125 0 1 cbr 210 ------- 1 0.2 1073741824.0 43 43
- 0.5624 0 1 cbr 210 ------- 1 0.2 1073741824.0 29 29
+ 0.565 0 1 cbr 210 ------- 1 0.2 1073741824.0 44 44
r 0.5668 0 1 cbr 210 ------- 1 0.2 1073741824.0 27 27
- 0.568 0 1 cbr 210 ------- 1 0.2 1073741824.0 30 30
+ 0.56875 0 1 cbr 210 ------- 1 0.2 1073741824.0 45 45
r 0.5724 0 1 cbr 210 ------- 1 0.2 1073741824.0 28 28
+ 0.5725 0 1 cbr 210 ------- 1 0.2 1073741824.0 46 46
- 0.5736 0 1 cbr 210 ------- 1 0.2 1073741824.0 31 31
+ 0.57625 0 1 cbr 210 ------- 1 0.2 1073741824.0 47 47
r 0.578 0 1 cbr 210 ------- 1 0.2 1073741824.0 29 29
- 0.5792 0 1 cbr 210 ------- 1 0.2 1073741824.0 32 32
+ 0.58 0 1 cbr 210 ------- 1 0.2 1073741824.0 48 48
r 0.5836 0 1 cbr 210 ------- 1 0.2 1073741824.0 30 30
+ 0.58375 0 1 cbr 210 ------- 1 0.2 1073741824.0 49 49
- 0.5848 0 1 cbr 210 ------- 1 0.2 1073741824.0 33 33
+ 0.5875 0 1 cbr 210 ------- 1 0.2 1073741824.0 50 50
r 0.5892 0 1 cbr 210 ------- 1 0.2 1073741824.0 31 31
- 0.5904 0 1 cbr 210 ------- 1 0.2 1073741824.0 34 34
+ 0.59125 0 1 cbr 210 ------- 1 0.2 1073741824.0 51 51
r 0.5948 0 1 cbr 210 ------- 1 0.2 1073741824.0 32 32
+ 0.595 0 1 cbr 210 ------- 1 0.2 1073741824.0 52 52
- 0.596 0 1 cbr 210 ------- 1 0.2 1073741824.0 35 35
+ 0.59875 0 1 cbr 210 ------- 1 0.2 1073741824.0 53 53
v 0.6 eval {set sim_annotation {0.59999999999999998 2 join-group 1073741824}}
+ 0.6 2 1 graft 80 ------- 3 2.0 1.0 -1 54
- 0.6 2 1 graft 80 ------- 3 2.0 1.0 -1 54
r 0.6004 0 1 cbr 210 ------- 1 0.2 1073741824.0 33 33
- 0.6016 0 1 cbr 210 ------- 1 0.2 1073741824.0 36 36
+ 0.6025 0 1 cbr 210 ------- 1 0.2 1073741824.0 54 55
r 0.606 0 1 cbr 210 ------- 1 0.2 1073741824.0 34 34
+ 0.60625 0 1 cbr 210 ------- 1 0.2 1073741824.0 55 56
- 0.6072 0 1 cbr 210 ------- 1 0.2 1073741824.0 37 37
+ 0.61 0 1 cbr 210 ------- 1 0.2 1073741824.0 56 57
r 0.6116 0 1 cbr 210 ------- 1 0.2 1073741824.0 35 35
r 0.612133 2 1 graft 80 ------- 3 2.0 1.0 -1 54
- 0.6128 0 1 cbr 210 ------- 1 0.2 1073741824.0 38 38
+ 0.61375 0 1 cbr 210 ------- 1 0.2 1073741824.0 57 58
r 0.6172 0 1 cbr 210 ------- 1 0.2 1073741824.0 36 36
+ 0.6172 1 2 cbr 210 ------- 1 0.2 1073741824.0 36 36
- 0.6172 1 2 cbr 210 ------- 1 0.2 1073741824.0 36 36
+ 0.6175 0 1 cbr 210 ------- 1 0.2 1073741824.0 58 59
- 0.6184 0 1 cbr 210 ------- 1 0.2 1073741824.0 39 39
+ 0.62125 0 1 cbr 210 ------- 1 0.2 1073741824.0 59 60
r 0.6228 0 1 cbr 210 ------- 1 0.2 1073741824.0 37 37
+ 0.6228 1 2 cbr 210 ------- 1 0.2 1073741824.0 37 37
- 0.6228 1 2 cbr 210 ------- 1 0.2 1073741824.0 37 37
- 0.624 0 1 cbr 210 ------- 1 0.2 1073741824.0 40 40
+ 0.625 0 1 cbr 210 ------- 1 0.2 1073741824.0 60 61
r 0.6284 0 1 cbr 210 ------- 1 0.2 1073741824.0 38 38
+ 0.6284 1 2 cbr 210 ------- 1 0.2 1073741824.0 38 38
- 0.6284 1 2 cbr 210 ------- 1 0.2 1073741824.0 38 38
+ 0.62875 0 1 cbr 210 ------- 1 0.2 1073741824.0 61 62
- 0.6296 0 1 cbr 210 ------- 1 0.2 1073741824.0 41 41
+ 0.6325 0 1 cbr 210 ------- 1 0.2 1073741824.0 62 63
r 0.6328 1 2 cbr 210 ------- 1 0.2 1073741824.0 36 36
r 0.634 0 1 cbr 210 ------- 1 0.2 1073741824.0 39 39
+ 0.634 1 2 cbr 210 ------- 1 0.2 1073741824.0 39 39
- 0.634 1 2 cbr 210 ------- 1 0.2 1073741824.0 39 39
- 0.6352 0 1 cbr 210 ------- 1 0.2 1073741824.0 42 42
+ 0.63625 0 1 cbr 210 ------- 1 0.2 1073741824.0 63 64
r 0.6384 1 2 cbr 210 ------- 1 0.2 1073741824.0 37 37
r 0.6396 0 1 cbr 210 ------- 1 0.2 1073741824.0 40 40
+ 0.6396 1 2 cbr 210 ------- 1 0.2 1073741824.0 40 40
- 0.6396 1 2 cbr 210 ------- 1 0.2 1073741824.0 40 40
+ 0.64 0 1 cbr 210 ------- 1 0.2 1073741824.0 64 65
- 0.6408 0 1 cbr 210 ------- 1 0.2 1073741824.0 43 43
+ 0.64375 0 1 cbr 210 ------- 1 0.2 1073741824.0 65 66
r 0.644 1 2 cbr 210 ------- 1 0.2 1073741824.0 38 38
r 0.6452 0 1 cbr 210 ------- 1 0.2 1073741824.0 41 41
+ 0.6452 1 2 cbr 210 ------- 1 0.2 1073741824.0 41 41
- 0.6452 1 2 cbr 210 ------- 1 0.2 1073741824.0 41 41
- 0.6464 0 1 cbr 210 ------- 1 0.2 1073741824.0 44 44
+ 0.6475 0 1 cbr 210 ------- 1 0.2 1073741824.0 66 67
r 0.6496 1 2 cbr 210 ------- 1 0.2 1073741824.0 39 39
r 0.6508 0 1 cbr 210 ------- 1 0.2 1073741824.0 42 42
+ 0.6508 1 2 cbr 210 ------- 1 0.2 1073741824.0 42 42
- 0.6508 1 2 cbr 210 ------- 1 0.2 1073741824.0 42 42
+ 0.65125 0 1 cbr 210 ------- 1 0.2 1073741824.0 67 68
- 0.652 0 1 cbr 210 ------- 1 0.2 1073741824.0 45 45
+ 0.655 0 1 cbr 210 ------- 1 0.2 1073741824.0 68 69
r 0.6552 1 2 cbr 210 ------- 1 0.2 1073741824.0 40 40
r 0.6564 0 1 cbr 210 ------- 1 0.2 1073741824.0 43 43
+ 0.6564 1 2 cbr 210 ------- 1 0.2 1073741824.0 43 43
- 0.6564 1 2 cbr 210 ------- 1 0.2 1073741824.0 43 43
- 0.6576 0 1 cbr 210 ------- 1 0.2 1073741824.0 46 46
+ 0.65875 0 1 cbr 210 ------- 1 0.2 1073741824.0 69 70
r 0.6608 1 2 cbr 210 ------- 1 0.2 1073741824.0 41 41
r 0.662 0 1 cbr 210 ------- 1 0.2 1073741824.0 44 44
+ 0.662 1 2 cbr 210 ------- 1 0.2 1073741824.0 44 44
- 0.662 1 2 cbr 210 ------- 1 0.2 1073741824.0 44 44
+ 0.6625 0 1 cbr 210 ------- 1 0.2 1073741824.0 70 71
- 0.6632 0 1 cbr 210 ------- 1 0.2 1073741824.0 47 47
+ 0.66625 0 1 cbr 210 ------- 1 0.2 1073741824.0 71 72
r 0.6664 1 2 cbr 210 ------- 1 0.2 1073741824.0 42 42
r 0.6676 0 1 cbr 210 ------- 1 0.2 1073741824.0 45 45
+ 0.6676 1 2 cbr 210 ------- 1 0.2 1073741824.0 45 45
- 0.6676 1 2 cbr 210 ------- 1 0.2 1073741824.0 45 45
- 0.6688 0 1 cbr 210 ------- 1 0.2 1073741824.0 48 48
+ 0.67 0 1 cbr 210 ------- 1 0.2 1073741824.0 72 73
r 0.672 1 2 cbr 210 ------- 1 0.2 1073741824.0 43 43
r 0.6732 0 1 cbr 210 ------- 1 0.2 1073741824.0 46 46
+ 0.6732 1 2 cbr 210 ------- 1 0.2 1073741824.0 46 46
- 0.6732 1 2 cbr 210 ------- 1 0.2 1073741824.0 46 46
+ 0.67375 0 1 cbr 210 ------- 1 0.2 1073741824.0 73 74
- 0.6744 0 1 cbr 210 ------- 1 0.2 1073741824.0 49 49
+ 0.6775 0 1 cbr 210 ------- 1 0.2 1073741824.0 74 75
r 0.6776 1 2 cbr 210 ------- 1 0.2 1073741824.0 44 44
r 0.6788 0 1 cbr 210 ------- 1 0.2 1073741824.0 47 47
+ 0.6788 1 2 cbr 210 ------- 1 0.2 1073741824.0 47 47
- 0.6788 1 2 cbr 210 ------- 1 0.2 1073741824.0 47 47
- 0.68 0 1 cbr 210 ------- 1 0.2 1073741824.0 50 50
+ 0.68125 0 1 cbr 210 ------- 1 0.2 1073741824.0 75 76
r 0.6832 1 2 cbr 210 ------- 1 0.2 1073741824.0 45 45
r 0.6844 0 1 cbr 210 ------- 1 0.2 1073741824.0 48 48
+ 0.6844 1 2 cbr 210 ------- 1 0.2 1073741824.0 48 48
- 0.6844 1 2 cbr 210 ------- 1 0.2 1073741824.0 48 48
+ 0.685 0 1 cbr 210 ------- 1 0.2 1073741824.0 76 77
- 0.6856 0 1 cbr 210 ------- 1 0.2 1073741824.0 51 51
+ 0.68875 0 1 cbr 210 ------- 1 0.2 1073741824.0 77 78
r 0.6888 1 2 cbr 210 ------- 1 0.2 1073741824.0 46 46
r 0.69 0 1 cbr 210 ------- 1 0.2 1073741824.0 49 49
+ 0.69 1 2 cbr 210 ------- 1 0.2 1073741824.0 49 49
- 0.69 1 2 cbr 210 ------- 1 0.2 1073741824.0 49 49
- 0.6912 0 1 cbr 210 ------- 1 0.2 1073741824.0 52 52
+ 0.6925 0 1 cbr 210 ------- 1 0.2 1073741824.0 78 79
r 0.6944 1 2 cbr 210 ------- 1 0.2 1073741824.0 47 47
r 0.6956 0 1 cbr 210 ------- 1 0.2 1073741824.0 50 50
+ 0.6956 1 2 cbr 210 ------- 1 0.2 1073741824.0 50 50
- 0.6956 1 2 cbr 210 ------- 1 0.2 1073741824.0 50 50
+ 0.69625 0 1 cbr 210 ------- 1 0.2 1073741824.0 79 80
- 0.6968 0 1 cbr 210 ------- 1 0.2 1073741824.0 53 53
+ 0.7 0 1 cbr 210 ------- 1 0.2 1073741824.0 80 81
r 0.7 1 2 cbr 210 ------- 1 0.2 1073741824.0 48 48
r 0.7012 0 1 cbr 210 ------- 1 0.2 1073741824.0 51 51
+ 0.7012 1 2 cbr 210 ------- 1 0.2 1073741824.0 51 51
- 0.7012 1 2 cbr 210 ------- 1 0.2 1073741824.0 51 51
- 0.7024 0 1 cbr 210 ------- 1 0.2 1073741824.0 54 55
+ 0.70375 0 1 cbr 210 ------- 1 0.2 1073741824.0 81 82
r 0.7056 1 2 cbr 210 ------- 1 0.2 1073741824.0 49 49
r 0.7068 0 1 cbr 210 ------- 1 0.2 1073741824.0 52 52
+ 0.7068 1 2 cbr 210 ------- 1 0.2 1073741824.0 52 52
- 0.7068 1 2 cbr 210 ------- 1 0.2 1073741824.0 52 52
+ 0.7075 0 1 cbr 210 ------- 1 0.2 1073741824.0 82 83
- 0.708 0 1 cbr 210 ------- 1 0.2 1073741824.0 55 56
r 0.7112 1 2 cbr 210 ------- 1 0.2 1073741824.0 50 50
+ 0.71125 0 1 cbr 210 ------- 1 0.2 1073741824.0 83 84
r 0.7124 0 1 cbr 210 ------- 1 0.2 1073741824.0 53 53
+ 0.7124 1 2 cbr 210 ------- 1 0.2 1073741824.0 53 53
- 0.7124 1 2 cbr 210 ------- 1 0.2 1073741824.0 53 53
- 0.7136 0 1 cbr 210 ------- 1 0.2 1073741824.0 56 57
+ 0.715 0 1 cbr 210 ------- 1 0.2 1073741824.0 84 85
r 0.7168 1 2 cbr 210 ------- 1 0.2 1073741824.0 51 51
r 0.718 0 1 cbr 210 ------- 1 0.2 1073741824.0 54 55
+ 0.718 1 2 cbr 210 ------- 1 0.2 1073741824.0 54 55
- 0.718 1 2 cbr 210 ------- 1 0.2 1073741824.0 54 55
+ 0.71875 0 1 cbr 210 ------- 1 0.2 1073741824.0 85 86
- 0.7192 0 1 cbr 210 ------- 1 0.2 1073741824.0 57 58
r 0.7224 1 2 cbr 210 ------- 1 0.2 1073741824.0 52 52
+ 0.7225 0 1 cbr 210 ------- 1 0.2 1073741824.0 86 87
r 0.7236 0 1 cbr 210 ------- 1 0.2 1073741824.0 55 56
+ 0.7236 1 2 cbr 210 ------- 1 0.2 1073741824.0 55 56
- 0.7236 1 2 cbr 210 ------- 1 0.2 1073741824.0 55 56
- 0.7248 0 1 cbr 210 ------- 1 0.2 1073741824.0 58 59
+ 0.72625 0 1 cbr 210 ------- 1 0.2 1073741824.0 87 88
r 0.728 1 2 cbr 210 ------- 1 0.2 1073741824.0 53 53
r 0.7292 0 1 cbr 210 ------- 1 0.2 1073741824.0 56 57
+ 0.7292 1 2 cbr 210 ------- 1 0.2 1073741824.0 56 57
- 0.7292 1 2 cbr 210 ------- 1 0.2 1073741824.0 56 57
+ 0.73 0 1 cbr 210 ------- 1 0.2 1073741824.0 88 89
- 0.7304 0 1 cbr 210 ------- 1 0.2 1073741824.0 59 60
r 0.7336 1 2 cbr 210 ------- 1 0.2 1073741824.0 54 55
+ 0.73375 0 1 cbr 210 ------- 1 0.2 1073741824.0 89 90
r 0.7348 0 1 cbr 210 ------- 1 0.2 1073741824.0 57 58
+ 0.7348 1 2 cbr 210 ------- 1 0.2 1073741824.0 57 58
- 0.7348 1 2 cbr 210 ------- 1 0.2 1073741824.0 57 58
- 0.736 0 1 cbr 210 ------- 1 0.2 1073741824.0 60 61
+ 0.7375 0 1 cbr 210 ------- 1 0.2 1073741824.0 90 91
r 0.7392 1 2 cbr 210 ------- 1 0.2 1073741824.0 55 56
r 0.7404 0 1 cbr 210 ------- 1 0.2 1073741824.0 58 59
+ 0.7404 1 2 cbr 210 ------- 1 0.2 1073741824.0 58 59
- 0.7404 1 2 cbr 210 ------- 1 0.2 1073741824.0 58 59
+ 0.74125 0 1 cbr 210 ------- 1 0.2 1073741824.0 91 92
- 0.7416 0 1 cbr 210 ------- 1 0.2 1073741824.0 61 62
r 0.7448 1 2 cbr 210 ------- 1 0.2 1073741824.0 56 57
+ 0.745 0 1 cbr 210 ------- 1 0.2 1073741824.0 92 93
r 0.746 0 1 cbr 210 ------- 1 0.2 1073741824.0 59 60
+ 0.746 1 2 cbr 210 ------- 1 0.2 1073741824.0 59 60
- 0.746 1 2 cbr 210 ------- 1 0.2 1073741824.0 59 60
- 0.7472 0 1 cbr 210 ------- 1 0.2 1073741824.0 62 63
+ 0.74875 0 1 cbr 210 ------- 1 0.2 1073741824.0 93 94
r 0.7504 1 2 cbr 210 ------- 1 0.2 1073741824.0 57 58
r 0.7516 0 1 cbr 210 ------- 1 0.2 1073741824.0 60 61
+ 0.7516 1 2 cbr 210 ------- 1 0.2 1073741824.0 60 61
- 0.7516 1 2 cbr 210 ------- 1 0.2 1073741824.0 60 61
+ 0.7525 0 1 cbr 210 ------- 1 0.2 1073741824.0 94 95
- 0.7528 0 1 cbr 210 ------- 1 0.2 1073741824.0 63 64
r 0.756 1 2 cbr 210 ------- 1 0.2 1073741824.0 58 59
+ 0.75625 0 1 cbr 210 ------- 1 0.2 1073741824.0 95 96
r 0.7572 0 1 cbr 210 ------- 1 0.2 1073741824.0 61 62
+ 0.7572 1 2 cbr 210 ------- 1 0.2 1073741824.0 61 62
- 0.7572 1 2 cbr 210 ------- 1 0.2 1073741824.0 61 62
- 0.7584 0 1 cbr 210 ------- 1 0.2 1073741824.0 64 65
+ 0.76 0 1 cbr 210 ------- 1 0.2 1073741824.0 96 97
r 0.7616 1 2 cbr 210 ------- 1 0.2 1073741824.0 59 60
r 0.7628 0 1 cbr 210 ------- 1 0.2 1073741824.0 62 63
+ 0.7628 1 2 cbr 210 ------- 1 0.2 1073741824.0 62 63
- 0.7628 1 2 cbr 210 ------- 1 0.2 1073741824.0 62 63
+ 0.76375 0 1 cbr 210 ------- 1 0.2 1073741824.0 97 98
- 0.764 0 1 cbr 210 ------- 1 0.2 1073741824.0 65 66
r 0.7672 1 2 cbr 210 ------- 1 0.2 1073741824.0 60 61
+ 0.7675 0 1 cbr 210 ------- 1 0.2 1073741824.0 98 99
r 0.7684 0 1 cbr 210 ------- 1 0.2 1073741824.0 63 64
+ 0.7684 1 2 cbr 210 ------- 1 0.2 1073741824.0 63 64
- 0.7684 1 2 cbr 210 ------- 1 0.2 1073741824.0 63 64
- 0.7696 0 1 cbr 210 ------- 1 0.2 1073741824.0 66 67
+ 0.77125 0 1 cbr 210 ------- 1 0.2 1073741824.0 99 100
r 0.7728 1 2 cbr 210 ------- 1 0.2 1073741824.0 61 62
r 0.774 0 1 cbr 210 ------- 1 0.2 1073741824.0 64 65
+ 0.774 1 2 cbr 210 ------- 1 0.2 1073741824.0 64 65
- 0.774 1 2 cbr 210 ------- 1 0.2 1073741824.0 64 65
+ 0.775 0 1 cbr 210 ------- 1 0.2 1073741824.0 100 101
- 0.7752 0 1 cbr 210 ------- 1 0.2 1073741824.0 67 68
r 0.7784 1 2 cbr 210 ------- 1 0.2 1073741824.0 62 63
+ 0.77875 0 1 cbr 210 ------- 1 0.2 1073741824.0 101 102
r 0.7796 0 1 cbr 210 ------- 1 0.2 1073741824.0 65 66
+ 0.7796 1 2 cbr 210 ------- 1 0.2 1073741824.0 65 66
- 0.7796 1 2 cbr 210 ------- 1 0.2 1073741824.0 65 66
- 0.7808 0 1 cbr 210 ------- 1 0.2 1073741824.0 68 69
+ 0.7825 0 1 cbr 210 ------- 1 0.2 1073741824.0 102 103
r 0.784 1 2 cbr 210 ------- 1 0.2 1073741824.0 63 64
r 0.7852 0 1 cbr 210 ------- 1 0.2 1073741824.0 66 67
+ 0.7852 1 2 cbr 210 ------- 1 0.2 1073741824.0 66 67
- 0.7852 1 2 cbr 210 ------- 1 0.2 1073741824.0 66 67
+ 0.78625 0 1 cbr 210 ------- 1 0.2 1073741824.0 103 104
- 0.7864 0 1 cbr 210 ------- 1 0.2 1073741824.0 69 70
r 0.7896 1 2 cbr 210 ------- 1 0.2 1073741824.0 64 65
+ 0.79 0 1 cbr 210 ------- 1 0.2 1073741824.0 104 105
r 0.7908 0 1 cbr 210 ------- 1 0.2 1073741824.0 67 68
+ 0.7908 1 2 cbr 210 ------- 1 0.2 1073741824.0 67 68
- 0.7908 1 2 cbr 210 ------- 1 0.2 1073741824.0 67 68
- 0.792 0 1 cbr 210 ------- 1 0.2 1073741824.0 70 71
+ 0.79375 0 1 cbr 210 ------- 1 0.2 1073741824.0 105 106
r 0.7952 1 2 cbr 210 ------- 1 0.2 1073741824.0 65 66
r 0.7964 0 1 cbr 210 ------- 1 0.2 1073741824.0 68 69
+ 0.7964 1 2 cbr 210 ------- 1 0.2 1073741824.0 68 69
- 0.7964 1 2 cbr 210 ------- 1 0.2 1073741824.0 68 69
+ 0.7975 0 1 cbr 210 ------- 1 0.2 1073741824.0 106 107
- 0.7976 0 1 cbr 210 ------- 1 0.2 1073741824.0 71 72
r 0.8008 1 2 cbr 210 ------- 1 0.2 1073741824.0 66 67
+ 0.80125 0 1 cbr 210 ------- 1 0.2 1073741824.0 107 108
r 0.802 0 1 cbr 210 ------- 1 0.2 1073741824.0 69 70
+ 0.802 1 2 cbr 210 ------- 1 0.2 1073741824.0 69 70
- 0.802 1 2 cbr 210 ------- 1 0.2 1073741824.0 69 70
- 0.8032 0 1 cbr 210 ------- 1 0.2 1073741824.0 72 73
+ 0.805 0 1 cbr 210 ------- 1 0.2 1073741824.0 108 109
r 0.8064 1 2 cbr 210 ------- 1 0.2 1073741824.0 67 68
r 0.8076 0 1 cbr 210 ------- 1 0.2 1073741824.0 70 71
+ 0.8076 1 2 cbr 210 ------- 1 0.2 1073741824.0 70 71
- 0.8076 1 2 cbr 210 ------- 1 0.2 1073741824.0 70 71
+ 0.80875 0 1 cbr 210 ------- 1 0.2 1073741824.0 109 110
- 0.8088 0 1 cbr 210 ------- 1 0.2 1073741824.0 73 74
r 0.812 1 2 cbr 210 ------- 1 0.2 1073741824.0 68 69
+ 0.8125 0 1 cbr 210 ------- 1 0.2 1073741824.0 110 111
r 0.8132 0 1 cbr 210 ------- 1 0.2 1073741824.0 71 72
+ 0.8132 1 2 cbr 210 ------- 1 0.2 1073741824.0 71 72
- 0.8132 1 2 cbr 210 ------- 1 0.2 1073741824.0 71 72
- 0.8144 0 1 cbr 210 ------- 1 0.2 1073741824.0 74 75
+ 0.81625 0 1 cbr 210 ------- 1 0.2 1073741824.0 111 112
r 0.8176 1 2 cbr 210 ------- 1 0.2 1073741824.0 69 70
r 0.8188 0 1 cbr 210 ------- 1 0.2 1073741824.0 72 73
+ 0.8188 1 2 cbr 210 ------- 1 0.2 1073741824.0 72 73
- 0.8188 1 2 cbr 210 ------- 1 0.2 1073741824.0 72 73
+ 0.82 0 1 cbr 210 ------- 1 0.2 1073741824.0 112 113
- 0.82 0 1 cbr 210 ------- 1 0.2 1073741824.0 75 76
r 0.8232 1 2 cbr 210 ------- 1 0.2 1073741824.0 70 71
+ 0.82375 0 1 cbr 210 ------- 1 0.2 1073741824.0 113 114
r 0.8244 0 1 cbr 210 ------- 1 0.2 1073741824.0 73 74
+ 0.8244 1 2 cbr 210 ------- 1 0.2 1073741824.0 73 74
- 0.8244 1 2 cbr 210 ------- 1 0.2 1073741824.0 73 74
- 0.8256 0 1 cbr 210 ------- 1 0.2 1073741824.0 76 77
+ 0.8275 0 1 cbr 210 ------- 1 0.2 1073741824.0 114 115
r 0.8288 1 2 cbr 210 ------- 1 0.2 1073741824.0 71 72
r 0.83 0 1 cbr 210 ------- 1 0.2 1073741824.0 74 75
+ 0.83 1 2 cbr 210 ------- 1 0.2 1073741824.0 74 75
- 0.83 1 2 cbr 210 ------- 1 0.2 1073741824.0 74 75
- 0.8312 0 1 cbr 210 ------- 1 0.2 1073741824.0 77 78
+ 0.83125 0 1 cbr 210 ------- 1 0.2 1073741824.0 115 116
r 0.8344 1 2 cbr 210 ------- 1 0.2 1073741824.0 72 73
+ 0.835 0 1 cbr 210 ------- 1 0.2 1073741824.0 116 117
r 0.8356 0 1 cbr 210 ------- 1 0.2 1073741824.0 75 76
+ 0.8356 1 2 cbr 210 ------- 1 0.2 1073741824.0 75 76
- 0.8356 1 2 cbr 210 ------- 1 0.2 1073741824.0 75 76
- 0.8368 0 1 cbr 210 ------- 1 0.2 1073741824.0 78 79
+ 0.83875 0 1 cbr 210 ------- 1 0.2 1073741824.0 117 118
r 0.84 1 2 cbr 210 ------- 1 0.2 1073741824.0 73 74
r 0.8412 0 1 cbr 210 ------- 1 0.2 1073741824.0 76 77
+ 0.8412 1 2 cbr 210 ------- 1 0.2 1073741824.0 76 77
- 0.8412 1 2 cbr 210 ------- 1 0.2 1073741824.0 76 77
- 0.8424 0 1 cbr 210 ------- 1 0.2 1073741824.0 79 80
+ 0.8425 0 1 cbr 210 ------- 1 0.2 1073741824.0 118 119
r 0.8456 1 2 cbr 210 ------- 1 0.2 1073741824.0 74 75
+ 0.84625 0 1 cbr 210 ------- 1 0.2 1073741824.0 119 120
r 0.8468 0 1 cbr 210 ------- 1 0.2 1073741824.0 77 78
+ 0.8468 1 2 cbr 210 ------- 1 0.2 1073741824.0 77 78
- 0.8468 1 2 cbr 210 ------- 1 0.2 1073741824.0 77 78
- 0.848 0 1 cbr 210 ------- 1 0.2 1073741824.0 80 81
+ 0.85 0 1 cbr 210 ------- 1 0.2 1073741824.0 120 121
r 0.8512 1 2 cbr 210 ------- 1 0.2 1073741824.0 75 76
r 0.8524 0 1 cbr 210 ------- 1 0.2 1073741824.0 78 79
+ 0.8524 1 2 cbr 210 ------- 1 0.2 1073741824.0 78 79
- 0.8524 1 2 cbr 210 ------- 1 0.2 1073741824.0 78 79
- 0.8536 0 1 cbr 210 ------- 1 0.2 1073741824.0 81 82
+ 0.85375 0 1 cbr 210 ------- 1 0.2 1073741824.0 121 122
r 0.8568 1 2 cbr 210 ------- 1 0.2 1073741824.0 76 77
+ 0.8575 0 1 cbr 210 ------- 1 0.2 1073741824.0 122 123
r 0.858 0 1 cbr 210 ------- 1 0.2 1073741824.0 79 80
+ 0.858 1 2 cbr 210 ------- 1 0.2 1073741824.0 79 80
- 0.858 1 2 cbr 210 ------- 1 0.2 1073741824.0 79 80
- 0.8592 0 1 cbr 210 ------- 1 0.2 1073741824.0 82 83
+ 0.86125 0 1 cbr 210 ------- 1 0.2 1073741824.0 123 124
r 0.8624 1 2 cbr 210 ------- 1 0.2 1073741824.0 77 78
r 0.8636 0 1 cbr 210 ------- 1 0.2 1073741824.0 80 81
+ 0.8636 1 2 cbr 210 ------- 1 0.2 1073741824.0 80 81
- 0.8636 1 2 cbr 210 ------- 1 0.2 1073741824.0 80 81
- 0.8648 0 1 cbr 210 ------- 1 0.2 1073741824.0 83 84
+ 0.865 0 1 cbr 210 ------- 1 0.2 1073741824.0 124 125
r 0.868 1 2 cbr 210 ------- 1 0.2 1073741824.0 78 79
+ 0.86875 0 1 cbr 210 ------- 1 0.2 1073741824.0 125 126
r 0.8692 0 1 cbr 210 ------- 1 0.2 1073741824.0 81 82
+ 0.8692 1 2 cbr 210 ------- 1 0.2 1073741824.0 81 82
- 0.8692 1 2 cbr 210 ------- 1 0.2 1073741824.0 81 82
- 0.8704 0 1 cbr 210 ------- 1 0.2 1073741824.0 84 85
+ 0.8725 0 1 cbr 210 ------- 1 0.2 1073741824.0 126 127
r 0.8736 1 2 cbr 210 ------- 1 0.2 1073741824.0 79 80
r 0.8748 0 1 cbr 210 ------- 1 0.2 1073741824.0 82 83
+ 0.8748 1 2 cbr 210 ------- 1 0.2 1073741824.0 82 83
- 0.8748 1 2 cbr 210 ------- 1 0.2 1073741824.0 82 83
- 0.876 0 1 cbr 210 ------- 1 0.2 1073741824.0 85 86
+ 0.87625 0 1 cbr 210 ------- 1 0.2 1073741824.0 127 128
r 0.8792 1 2 cbr 210 ------- 1 0.2 1073741824.0 80 81
+ 0.88 0 1 cbr 210 ------- 1 0.2 1073741824.0 128 129
r 0.8804 0 1 cbr 210 ------- 1 0.2 1073741824.0 83 84
+ 0.8804 1 2 cbr 210 ------- 1 0.2 1073741824.0 83 84
- 0.8804 1 2 cbr 210 ------- 1 0.2 1073741824.0 83 84
- 0.8816 0 1 cbr 210 ------- 1 0.2 1073741824.0 86 87
+ 0.88375 0 1 cbr 210 ------- 1 0.2 1073741824.0 129 130
r 0.8848 1 2 cbr 210 ------- 1 0.2 1073741824.0 81 82
r 0.886 0 1 cbr 210 ------- 1 0.2 1073741824.0 84 85
+ 0.886 1 2 cbr 210 ------- 1 0.2 1073741824.0 84 85
- 0.886 1 2 cbr 210 ------- 1 0.2 1073741824.0 84 85
- 0.8872 0 1 cbr 210 ------- 1 0.2 1073741824.0 87 88
+ 0.8875 0 1 cbr 210 ------- 1 0.2 1073741824.0 130 131
r 0.8904 1 2 cbr 210 ------- 1 0.2 1073741824.0 82 83
+ 0.89125 0 1 cbr 210 ------- 1 0.2 1073741824.0 131 132
r 0.8916 0 1 cbr 210 ------- 1 0.2 1073741824.0 85 86
+ 0.8916 1 2 cbr 210 ------- 1 0.2 1073741824.0 85 86
- 0.8916 1 2 cbr 210 ------- 1 0.2 1073741824.0 85 86
- 0.8928 0 1 cbr 210 ------- 1 0.2 1073741824.0 88 89
+ 0.895 0 1 cbr 210 ------- 1 0.2 1073741824.0 132 133
r 0.896 1 2 cbr 210 ------- 1 0.2 1073741824.0 83 84
r 0.8972 0 1 cbr 210 ------- 1 0.2 1073741824.0 86 87
+ 0.8972 1 2 cbr 210 ------- 1 0.2 1073741824.0 86 87
- 0.8972 1 2 cbr 210 ------- 1 0.2 1073741824.0 86 87
- 0.8984 0 1 cbr 210 ------- 1 0.2 1073741824.0 89 90
+ 0.89875 0 1 cbr 210 ------- 1 0.2 1073741824.0 133 134
r 0.9016 1 2 cbr 210 ------- 1 0.2 1073741824.0 84 85
+ 0.9025 0 1 cbr 210 ------- 1 0.2 1073741824.0 134 135
r 0.9028 0 1 cbr 210 ------- 1 0.2 1073741824.0 87 88
+ 0.9028 1 2 cbr 210 ------- 1 0.2 1073741824.0 87 88
- 0.9028 1 2 cbr 210 ------- 1 0.2 1073741824.0 87 88
- 0.904 0 1 cbr 210 ------- 1 0.2 1073741824.0 90 91
+ 0.90625 0 1 cbr 210 ------- 1 0.2 1073741824.0 135 136
r 0.9072 1 2 cbr 210 ------- 1 0.2 1073741824.0 85 86
r 0.9084 0 1 cbr 210 ------- 1 0.2 1073741824.0 88 89
+ 0.9084 1 2 cbr 210 ------- 1 0.2 1073741824.0 88 89
- 0.9084 1 2 cbr 210 ------- 1 0.2 1073741824.0 88 89
- 0.9096 0 1 cbr 210 ------- 1 0.2 1073741824.0 91 92
+ 0.91 0 1 cbr 210 ------- 1 0.2 1073741824.0 136 137
r 0.9128 1 2 cbr 210 ------- 1 0.2 1073741824.0 86 87
+ 0.91375 0 1 cbr 210 ------- 1 0.2 1073741824.0 137 138
r 0.914 0 1 cbr 210 ------- 1 0.2 1073741824.0 89 90
+ 0.914 1 2 cbr 210 ------- 1 0.2 1073741824.0 89 90
- 0.914 1 2 cbr 210 ------- 1 0.2 1073741824.0 89 90
- 0.9152 0 1 cbr 210 ------- 1 0.2 1073741824.0 92 93
+ 0.9175 0 1 cbr 210 ------- 1 0.2 1073741824.0 138 139
r 0.9184 1 2 cbr 210 ------- 1 0.2 1073741824.0 87 88
r 0.9196 0 1 cbr 210 ------- 1 0.2 1073741824.0 90 91
+ 0.9196 1 2 cbr 210 ------- 1 0.2 1073741824.0 90 91
- 0.9196 1 2 cbr 210 ------- 1 0.2 1073741824.0 90 91
- 0.9208 0 1 cbr 210 ------- 1 0.2 1073741824.0 93 94
+ 0.92125 0 1 cbr 210 ------- 1 0.2 1073741824.0 139 140
r 0.924 1 2 cbr 210 ------- 1 0.2 1073741824.0 88 89
+ 0.925 0 1 cbr 210 ------- 1 0.2 1073741824.0 140 141
r 0.9252 0 1 cbr 210 ------- 1 0.2 1073741824.0 91 92
+ 0.9252 1 2 cbr 210 ------- 1 0.2 1073741824.0 91 92
- 0.9252 1 2 cbr 210 ------- 1 0.2 1073741824.0 91 92
- 0.9264 0 1 cbr 210 ------- 1 0.2 1073741824.0 94 95
+ 0.92875 0 1 cbr 210 ------- 1 0.2 1073741824.0 141 142
r 0.9296 1 2 cbr 210 ------- 1 0.2 1073741824.0 89 90
r 0.9308 0 1 cbr 210 ------- 1 0.2 1073741824.0 92 93
+ 0.9308 1 2 cbr 210 ------- 1 0.2 1073741824.0 92 93
- 0.9308 1 2 cbr 210 ------- 1 0.2 1073741824.0 92 93
- 0.932 0 1 cbr 210 ------- 1 0.2 1073741824.0 95 96
+ 0.9325 0 1 cbr 210 ------- 1 0.2 1073741824.0 142 143
r 0.9352 1 2 cbr 210 ------- 1 0.2 1073741824.0 90 91
+ 0.93625 0 1 cbr 210 ------- 1 0.2 1073741824.0 143 144
r 0.9364 0 1 cbr 210 ------- 1 0.2 1073741824.0 93 94
+ 0.9364 1 2 cbr 210 ------- 1 0.2 1073741824.0 93 94
- 0.9364 1 2 cbr 210 ------- 1 0.2 1073741824.0 93 94
- 0.9376 0 1 cbr 210 ------- 1 0.2 1073741824.0 96 97
+ 0.94 0 1 cbr 210 ------- 1 0.2 1073741824.0 144 145
r 0.9408 1 2 cbr 210 ------- 1 0.2 1073741824.0 91 92
r 0.942 0 1 cbr 210 ------- 1 0.2 1073741824.0 94 95
+ 0.942 1 2 cbr 210 ------- 1 0.2 1073741824.0 94 95
- 0.942 1 2 cbr 210 ------- 1 0.2 1073741824.0 94 95
- 0.9432 0 1 cbr 210 ------- 1 0.2 1073741824.0 97 98
+ 0.94375 0 1 cbr 210 ------- 1 0.2 1073741824.0 145 146
r 0.9464 1 2 cbr 210 ------- 1 0.2 1073741824.0 92 93
+ 0.9475 0 1 cbr 210 ------- 1 0.2 1073741824.0 146 147
r 0.9476 0 1 cbr 210 ------- 1 0.2 1073741824.0 95 96
+ 0.9476 1 2 cbr 210 ------- 1 0.2 1073741824.0 95 96
- 0.9476 1 2 cbr 210 ------- 1 0.2 1073741824.0 95 96
- 0.9488 0 1 cbr 210 ------- 1 0.2 1073741824.0 98 99
+ 0.95125 0 1 cbr 210 ------- 1 0.2 1073741824.0 147 148
r 0.952 1 2 cbr 210 ------- 1 0.2 1073741824.0 93 94
r 0.9532 0 1 cbr 210 ------- 1 0.2 1073741824.0 96 97
+ 0.9532 1 2 cbr 210 ------- 1 0.2 1073741824.0 96 97
- 0.9532 1 2 cbr 210 ------- 1 0.2 1073741824.0 96 97
- 0.9544 0 1 cbr 210 ------- 1 0.2 1073741824.0 99 100
+ 0.955 0 1 cbr 210 ------- 1 0.2 1073741824.0 148 149
r 0.9576 1 2 cbr 210 ------- 1 0.2 1073741824.0 94 95
+ 0.95875 0 1 cbr 210 ------- 1 0.2 1073741824.0 149 150
d 0.95875 0 1 cbr 210 ------- 1 0.2 1073741824.0 149 150
r 0.9588 0 1 cbr 210 ------- 1 0.2 1073741824.0 97 98
+ 0.9588 1 2 cbr 210 ------- 1 0.2 1073741824.0 97 98
- 0.9588 1 2 cbr 210 ------- 1 0.2 1073741824.0 97 98
- 0.96 0 1 cbr 210 ------- 1 0.2 1073741824.0 100 101
+ 0.9625 0 1 cbr 210 ------- 1 0.2 1073741824.0 150 151
r 0.9632 1 2 cbr 210 ------- 1 0.2 1073741824.0 95 96
r 0.9644 0 1 cbr 210 ------- 1 0.2 1073741824.0 98 99
+ 0.9644 1 2 cbr 210 ------- 1 0.2 1073741824.0 98 99
- 0.9644 1 2 cbr 210 ------- 1 0.2 1073741824.0 98 99
- 0.9656 0 1 cbr 210 ------- 1 0.2 1073741824.0 101 102
+ 0.96625 0 1 cbr 210 ------- 1 0.2 1073741824.0 151 152
r 0.9688 1 2 cbr 210 ------- 1 0.2 1073741824.0 96 97
+ 0.97 0 1 cbr 210 ------- 1 0.2 1073741824.0 152 153
d 0.97 0 1 cbr 210 ------- 1 0.2 1073741824.0 152 153
r 0.97 0 1 cbr 210 ------- 1 0.2 1073741824.0 99 100
+ 0.97 1 2 cbr 210 ------- 1 0.2 1073741824.0 99 100
- 0.97 1 2 cbr 210 ------- 1 0.2 1073741824.0 99 100
- 0.9712 0 1 cbr 210 ------- 1 0.2 1073741824.0 102 103
+ 0.97375 0 1 cbr 210 ------- 1 0.2 1073741824.0 153 154
r 0.9744 1 2 cbr 210 ------- 1 0.2 1073741824.0 97 98
r 0.9756 0 1 cbr 210 ------- 1 0.2 1073741824.0 100 101
+ 0.9756 1 2 cbr 210 ------- 1 0.2 1073741824.0 100 101