V -t * -v 1.0a5 -a 0
A -t * -n 1 -p 0 -o 0x7fffffff -c 30 -a 1
A -t * -h 1 -m 1073741823 -s 0
c -t * -i 31 -n green
c -t * -i 1 -n red
c -t * -i 30 -n purple
n -t * -a 4 -s 4 -S UP -v circle -c black -i black
n -t * -a 0 -s 0 -S UP -v circle -c black -i black
n -t * -a 5 -s 5 -S UP -v circle -c black -i black
n -t * -a 1 -s 1 -S UP -v circle -c black -i black
n -t * -a 2 -s 2 -S UP -v circle -c black -i black
n -t * -a 3 -s 3 -S UP -v circle -c black -i black
l -t * -s 0 -d 1 -S UP -r 300000 -D 0.01 -c black
l -t * -s 1 -d 2 -S UP -r 300000 -D 0.01 -c black
l -t * -s 1 -d 3 -S UP -r 500000 -D 0.01 -c black
l -t * -s 1 -d 4 -S UP -r 300000 -D 0.01 -c black
l -t * -s 2 -d 3 -S UP -r 300000 -D 0.01 -c black
l -t * -s 3 -d 4 -S UP -r 500000 -D 0.01 -c black
l -t * -s 3 -d 5 -S UP -r 500000 -D 0.01 -c black
l -t * -s 4 -d 5 -S UP -r 500000 -D 0.01 -c black
+ -t 0.4 -s 0 -d 1 -p cbr -e 210 -c 1 -i 0 -a 1 -x {0.2 1073741824.0 0 ------- null}
- -t 0.4 -s 0 -d 1 -p cbr -e 210 -c 1 -i 0 -a 1 -x {0.2 1073741824.0 0 ------- null}
h -t 0.4 -s 0 -d 1 -p cbr -e 210 -c 1 -i 0 -a 1 -x {0.2 1073741824.0 -1 ------- null}
+ -t 0.40375 -s 0 -d 1 -p cbr -e 210 -c 1 -i 1 -a 1 -x {0.2 1073741824.0 1 ------- null}
- -t 0.4056 -s 0 -d 1 -p cbr -e 210 -c 1 -i 1 -a 1 -x {0.2 1073741824.0 1 ------- null}
h -t 0.4056 -s 0 -d 1 -p cbr -e 210 -c 1 -i 1 -a 1 -x {0.2 1073741824.0 -1 ------- null}
+ -t 0.4075 -s 0 -d 1 -p cbr -e 210 -c 1 -i 2 -a 1 -x {0.2 1073741824.0 2 ------- null}
- -t 0.4112 -s 0 -d 1 -p cbr -e 210 -c 1 -i 2 -a 1 -x {0.2 1073741824.0 2 ------- null}
h -t 0.4112 -s 0 -d 1 -p cbr -e 210 -c 1 -i 2 -a 1 -x {0.2 1073741824.0 -1 ------- null}
+ -t 0.41125 -s 0 -d 1 -p cbr -e 210 -c 1 -i 3 -a 1 -x {0.2 1073741824.0 3 ------- null}
+ -t 0.415 -s 0 -d 1 -p cbr -e 210 -c 1 -i 4 -a 1 -x {0.2 1073741824.0 4 ------- null}
r -t 0.4156 -s 0 -d 1 -p cbr -e 210 -c 1 -i 0 -a 1 -x {0.2 1073741824.0 0 ------- null}
- -t 0.4168 -s 0 -d 1 -p cbr -e 210 -c 1 -i 3 -a 1 -x {0.2 1073741824.0 3 ------- null}
h -t 0.4168 -s 0 -d 1 -p cbr -e 210 -c 1 -i 3 -a 1 -x {0.2 1073741824.0 -1 ------- null}
+ -t 0.41875 -s 0 -d 1 -p cbr -e 210 -c 1 -i 5 -a 1 -x {0.2 1073741824.0 5 ------- null}
r -t 0.4212 -s 0 -d 1 -p cbr -e 210 -c 1 -i 1 -a 1 -x {0.2 1073741824.0 1 ------- null}
- -t 0.4224 -s 0 -d 1 -p cbr -e 210 -c 1 -i 4 -a 1 -x {0.2 1073741824.0 4 ------- null}
h -t 0.4224 -s 0 -d 1 -p cbr -e 210 -c 1 -i 4 -a 1 -x {0.2 1073741824.0 -1 ------- null}
+ -t 0.4225 -s 0 -d 1 -p cbr -e 210 -c 1 -i 6 -a 1 -x {0.2 1073741824.0 6 ------- null}
+ -t 0.42625 -s 0 -d 1 -p cbr -e 210 -c 1 -i 7 -a 1 -x {0.2 1073741824.0 7 ------- null}
r -t 0.4268 -s 0 -d 1 -p cbr -e 210 -c 1 -i 2 -a 1 -x {0.2 1073741824.0 2 ------- null}
- -t 0.428 -s 0 -d 1 -p cbr -e 210 -c 1 -i 5 -a 1 -x {0.2 1073741824.0 5 ------- null}
h -t 0.428 -s 0 -d 1 -p cbr -e 210 -c 1 -i 5 -a 1 -x {0.2 1073741824.0 -1 ------- null}
+ -t 0.43 -s 0 -d 1 -p cbr -e 210 -c 1 -i 8 -a 1 -x {0.2 1073741824.0 8 ------- null}
r -t 0.4324 -s 0 -d 1 -p cbr -e 210 -c 1 -i 3 -a 1 -x {0.2 1073741824.0 3 ------- null}
- -t 0.4336 -s 0 -d 1 -p cbr -e 210 -c 1 -i 6 -a 1 -x {0.2 1073741824.0 6 ------- null}
h -t 0.4336 -s 0 -d 1 -p cbr -e 210 -c 1 -i 6 -a 1 -x {0.2 1073741824.0 -1 ------- null}
+ -t 0.43375 -s 0 -d 1 -p cbr -e 210 -c 1 -i 9 -a 1 -x {0.2 1073741824.0 9 ------- null}
+ -t 0.4375 -s 0 -d 1 -p cbr -e 210 -c 1 -i 10 -a 1 -x {0.2 1073741824.0 10 ------- null}
r -t 0.438 -s 0 -d 1 -p cbr -e 210 -c 1 -i 4 -a 1 -x {0.2 1073741824.0 4 ------- null}
- -t 0.4392 -s 0 -d 1 -p cbr -e 210 -c 1 -i 7 -a 1 -x {0.2 1073741824.0 7 ------- null}
h -t 0.4392 -s 0 -d 1 -p cbr -e 210 -c 1 -i 7 -a 1 -x {0.2 1073741824.0 -1 ------- null}
+ -t 0.44125 -s 0 -d 1 -p cbr -e 210 -c 1 -i 11 -a 1 -x {0.2 1073741824.0 11 ------- null}
r -t 0.4436 -s 0 -d 1 -p cbr -e 210 -c 1 -i 5 -a 1 -x {0.2 1073741824.0 5 ------- null}
- -t 0.4448 -s 0 -d 1 -p cbr -e 210 -c 1 -i 8 -a 1 -x {0.2 1073741824.0 8 ------- null}
h -t 0.4448 -s 0 -d 1 -p cbr -e 210 -c 1 -i 8 -a 1 -x {0.2 1073741824.0 -1 ------- null}
+ -t 0.445 -s 0 -d 1 -p cbr -e 210 -c 1 -i 12 -a 1 -x {0.2 1073741824.0 12 ------- null}
+ -t 0.44875 -s 0 -d 1 -p cbr -e 210 -c 1 -i 13 -a 1 -x {0.2 1073741824.0 13 ------- null}
r -t 0.4492 -s 0 -d 1 -p cbr -e 210 -c 1 -i 6 -a 1 -x {0.2 1073741824.0 6 ------- null}
- -t 0.4504 -s 0 -d 1 -p cbr -e 210 -c 1 -i 9 -a 1 -x {0.2 1073741824.0 9 ------- null}
h -t 0.4504 -s 0 -d 1 -p cbr -e 210 -c 1 -i 9 -a 1 -x {0.2 1073741824.0 -1 ------- null}
+ -t 0.4525 -s 0 -d 1 -p cbr -e 210 -c 1 -i 14 -a 1 -x {0.2 1073741824.0 14 ------- null}
r -t 0.4548 -s 0 -d 1 -p cbr -e 210 -c 1 -i 7 -a 1 -x {0.2 1073741824.0 7 ------- null}
- -t 0.456 -s 0 -d 1 -p cbr -e 210 -c 1 -i 10 -a 1 -x {0.2 1073741824.0 10 ------- null}
h -t 0.456 -s 0 -d 1 -p cbr -e 210 -c 1 -i 10 -a 1 -x {0.2 1073741824.0 -1 ------- null}
+ -t 0.45625 -s 0 -d 1 -p cbr -e 210 -c 1 -i 15 -a 1 -x {0.2 1073741824.0 15 ------- null}
+ -t 0.46 -s 0 -d 1 -p cbr -e 210 -c 1 -i 16 -a 1 -x {0.2 1073741824.0 16 ------- null}
r -t 0.4604 -s 0 -d 1 -p cbr -e 210 -c 1 -i 8 -a 1 -x {0.2 1073741824.0 8 ------- null}
- -t 0.4616 -s 0 -d 1 -p cbr -e 210 -c 1 -i 11 -a 1 -x {0.2 1073741824.0 11 ------- null}
h -t 0.4616 -s 0 -d 1 -p cbr -e 210 -c 1 -i 11 -a 1 -x {0.2 1073741824.0 -1 ------- null}
+ -t 0.46375 -s 0 -d 1 -p cbr -e 210 -c 1 -i 17 -a 1 -x {0.2 1073741824.0 17 ------- null}
r -t 0.466 -s 0 -d 1 -p cbr -e 210 -c 1 -i 9 -a 1 -x {0.2 1073741824.0 9 ------- null}
- -t 0.4672 -s 0 -d 1 -p cbr -e 210 -c 1 -i 12 -a 1 -x {0.2 1073741824.0 12 ------- null}
h -t 0.4672 -s 0 -d 1 -p cbr -e 210 -c 1 -i 12 -a 1 -x {0.2 1073741824.0 -1 ------- null}
+ -t 0.4675 -s 0 -d 1 -p cbr -e 210 -c 1 -i 18 -a 1 -x {0.2 1073741824.0 18 ------- null}
+ -t 0.47125 -s 0 -d 1 -p cbr -e 210 -c 1 -i 19 -a 1 -x {0.2 1073741824.0 19 ------- null}
r -t 0.4716 -s 0 -d 1 -p cbr -e 210 -c 1 -i 10 -a 1 -x {0.2 1073741824.0 10 ------- null}
- -t 0.4728 -s 0 -d 1 -p cbr -e 210 -c 1 -i 13 -a 1 -x {0.2 1073741824.0 13 ------- null}
h -t 0.4728 -s 0 -d 1 -p cbr -e 210 -c 1 -i 13 -a 1 -x {0.2 1073741824.0 -1 ------- null}
+ -t 0.475 -s 0 -d 1 -p cbr -e 210 -c 1 -i 20 -a 1 -x {0.2 1073741824.0 20 ------- null}
r -t 0.4772 -s 0 -d 1 -p cbr -e 210 -c 1 -i 11 -a 1 -x {0.2 1073741824.0 11 ------- null}
- -t 0.4784 -s 0 -d 1 -p cbr -e 210 -c 1 -i 14 -a 1 -x {0.2 1073741824.0 14 ------- null}
h -t 0.4784 -s 0 -d 1 -p cbr -e 210 -c 1 -i 14 -a 1 -x {0.2 1073741824.0 -1 ------- null}
+ -t 0.47875 -s 0 -d 1 -p cbr -e 210 -c 1 -i 21 -a 1 -x {0.2 1073741824.0 21 ------- null}
+ -t 0.482499999999999 -s 0 -d 1 -p cbr -e 210 -c 1 -i 22 -a 1 -x {0.2 1073741824.0 22 ------- null}
r -t 0.4828 -s 0 -d 1 -p cbr -e 210 -c 1 -i 12 -a 1 -x {0.2 1073741824.0 12 ------- null}
- -t 0.484 -s 0 -d 1 -p cbr -e 210 -c 1 -i 15 -a 1 -x {0.2 1073741824.0 15 ------- null}
h -t 0.484 -s 0 -d 1 -p cbr -e 210 -c 1 -i 15 -a 1 -x {0.2 1073741824.0 -1 ------- null}
+ -t 0.486249999999999 -s 0 -d 1 -p cbr -e 210 -c 1 -i 23 -a 1 -x {0.2 1073741824.0 23 ------- null}
r -t 0.4884 -s 0 -d 1 -p cbr -e 210 -c 1 -i 13 -a 1 -x {0.2 1073741824.0 13 ------- null}
- -t 0.4896 -s 0 -d 1 -p cbr -e 210 -c 1 -i 16 -a 1 -x {0.2 1073741824.0 16 ------- null}
h -t 0.4896 -s 0 -d 1 -p cbr -e 210 -c 1 -i 16 -a 1 -x {0.2 1073741824.0 -1 ------- null}
+ -t 0.489999999999999 -s 0 -d 1 -p cbr -e 210 -c 1 -i 24 -a 1 -x {0.2 1073741824.0 24 ------- null}
+ -t 0.493749999999999 -s 0 -d 1 -p cbr -e 210 -c 1 -i 25 -a 1 -x {0.2 1073741824.0 25 ------- null}
r -t 0.494 -s 0 -d 1 -p cbr -e 210 -c 1 -i 14 -a 1 -x {0.2 1073741824.0 14 ------- null}
- -t 0.4952 -s 0 -d 1 -p cbr -e 210 -c 1 -i 17 -a 1 -x {0.2 1073741824.0 17 ------- null}
h -t 0.4952 -s 0 -d 1 -p cbr -e 210 -c 1 -i 17 -a 1 -x {0.2 1073741824.0 -1 ------- null}
+ -t 0.497499999999999 -s 0 -d 1 -p cbr -e 210 -c 1 -i 26 -a 1 -x {0.2 1073741824.0 26 ------- null}
r -t 0.4996 -s 0 -d 1 -p cbr -e 210 -c 1 -i 15 -a 1 -x {0.2 1073741824.0 15 ------- null}
- -t 0.5008 -s 0 -d 1 -p cbr -e 210 -c 1 -i 18 -a 1 -x {0.2 1073741824.0 18 ------- null}
h -t 0.5008 -s 0 -d 1 -p cbr -e 210 -c 1 -i 18 -a 1 -x {0.2 1073741824.0 -1 ------- null}
+ -t 0.501249999999999 -s 0 -d 1 -p cbr -e 210 -c 1 -i 27 -a 1 -x {0.2 1073741824.0 27 ------- null}
+ -t 0.504999999999999 -s 0 -d 1 -p cbr -e 210 -c 1 -i 28 -a 1 -x {0.2 1073741824.0 28 ------- null}
r -t 0.5052 -s 0 -d 1 -p cbr -e 210 -c 1 -i 16 -a 1 -x {0.2 1073741824.0 16 ------- null}
- -t 0.5064 -s 0 -d 1 -p cbr -e 210 -c 1 -i 19 -a 1 -x {0.2 1073741824.0 19 ------- null}
h -t 0.5064 -s 0 -d 1 -p cbr -e 210 -c 1 -i 19 -a 1 -x {0.2 1073741824.0 -1 ------- null}
+ -t 0.508749999999999 -s 0 -d 1 -p cbr -e 210 -c 1 -i 29 -a 1 -x {0.2 1073741824.0 29 ------- null}
r -t 0.5108 -s 0 -d 1 -p cbr -e 210 -c 1 -i 17 -a 1 -x {0.2 1073741824.0 17 ------- null}
- -t 0.512 -s 0 -d 1 -p cbr -e 210 -c 1 -i 20 -a 1 -x {0.2 1073741824.0 20 ------- null}
h -t 0.512 -s 0 -d 1 -p cbr -e 210 -c 1 -i 20 -a 1 -x {0.2 1073741824.0 -1 ------- null}
+ -t 0.5125 -s 0 -d 1 -p cbr -e 210 -c 1 -i 30 -a 1 -x {0.2 1073741824.0 30 ------- null}
+ -t 0.51625 -s 0 -d 1 -p cbr -e 210 -c 1 -i 31 -a 1 -x {0.2 1073741824.0 31 ------- null}
r -t 0.5164 -s 0 -d 1 -p cbr -e 210 -c 1 -i 18 -a 1 -x {0.2 1073741824.0 18 ------- null}
- -t 0.5176 -s 0 -d 1 -p cbr -e 210 -c 1 -i 21 -a 1 -x {0.2 1073741824.0 21 ------- null}
h -t 0.5176 -s 0 -d 1 -p cbr -e 210 -c 1 -i 21 -a 1 -x {0.2 1073741824.0 -1 ------- null}
+ -t 0.52 -s 0 -d 1 -p cbr -e 210 -c 1 -i 32 -a 1 -x {0.2 1073741824.0 32 ------- null}
r -t 0.522 -s 0 -d 1 -p cbr -e 210 -c 1 -i 19 -a 1 -x {0.2 1073741824.0 19 ------- null}
- -t 0.5232 -s 0 -d 1 -p cbr -e 210 -c 1 -i 22 -a 1 -x {0.2 1073741824.0 22 ------- null}
h -t 0.5232 -s 0 -d 1 -p cbr -e 210 -c 1 -i 22 -a 1 -x {0.2 1073741824.0 -1 ------- null}
+ -t 0.52375 -s 0 -d 1 -p cbr -e 210 -c 1 -i 33 -a 1 -x {0.2 1073741824.0 33 ------- null}
+ -t 0.5275 -s 0 -d 1 -p cbr -e 210 -c 1 -i 34 -a 1 -x {0.2 1073741824.0 34 ------- null}
r -t 0.5276 -s 0 -d 1 -p cbr -e 210 -c 1 -i 20 -a 1 -x {0.2 1073741824.0 20 ------- null}
- -t 0.5288 -s 0 -d 1 -p cbr -e 210 -c 1 -i 23 -a 1 -x {0.2 1073741824.0 23 ------- null}
h -t 0.5288 -s 0 -d 1 -p cbr -e 210 -c 1 -i 23 -a 1 -x {0.2 1073741824.0 -1 ------- null}
+ -t 0.53125 -s 0 -d 1 -p cbr -e 210 -c 1 -i 35 -a 1 -x {0.2 1073741824.0 35 ------- null}
r -t 0.5332 -s 0 -d 1 -p cbr -e 210 -c 1 -i 21 -a 1 -x {0.2 1073741824.0 21 ------- null}
- -t 0.5344 -s 0 -d 1 -p cbr -e 210 -c 1 -i 24 -a 1 -x {0.2 1073741824.0 24 ------- null}
h -t 0.5344 -s 0 -d 1 -p cbr -e 210 -c 1 -i 24 -a 1 -x {0.2 1073741824.0 -1 ------- null}
+ -t 0.535 -s 0 -d 1 -p cbr -e 210 -c 1 -i 36 -a 1 -x {0.2 1073741824.0 36 ------- null}
+ -t 0.53875 -s 0 -d 1 -p cbr -e 210 -c 1 -i 37 -a 1 -x {0.2 1073741824.0 37 ------- null}
r -t 0.5388 -s 0 -d 1 -p cbr -e 210 -c 1 -i 22 -a 1 -x {0.2 1073741824.0 22 ------- null}
- -t 0.54 -s 0 -d 1 -p cbr -e 210 -c 1 -i 25 -a 1 -x {0.2 1073741824.0 25 ------- null}
h -t 0.54 -s 0 -d 1 -p cbr -e 210 -c 1 -i 25 -a 1 -x {0.2 1073741824.0 -1 ------- null}
+ -t 0.5425 -s 0 -d 1 -p cbr -e 210 -c 1 -i 38 -a 1 -x {0.2 1073741824.0 38 ------- null}
r -t 0.5444 -s 0 -d 1 -p cbr -e 210 -c 1 -i 23 -a 1 -x {0.2 1073741824.0 23 ------- null}
- -t 0.5456 -s 0 -d 1 -p cbr -e 210 -c 1 -i 26 -a 1 -x {0.2 1073741824.0 26 ------- null}
h -t 0.5456 -s 0 -d 1 -p cbr -e 210 -c 1 -i 26 -a 1 -x {0.2 1073741824.0 -1 ------- null}
+ -t 0.54625 -s 0 -d 1 -p cbr -e 210 -c 1 -i 39 -a 1 -x {0.2 1073741824.0 39 ------- null}
+ -t 0.55 -s 0 -d 1 -p cbr -e 210 -c 1 -i 40 -a 1 -x {0.2 1073741824.0 40 ------- null}
r -t 0.55 -s 0 -d 1 -p cbr -e 210 -c 1 -i 24 -a 1 -x {0.2 1073741824.0 24 ------- null}
- -t 0.5512 -s 0 -d 1 -p cbr -e 210 -c 1 -i 27 -a 1 -x {0.2 1073741824.0 27 ------- null}
h -t 0.5512 -s 0 -d 1 -p cbr -e 210 -c 1 -i 27 -a 1 -x {0.2 1073741824.0 -1 ------- null}
+ -t 0.55375 -s 0 -d 1 -p cbr -e 210 -c 1 -i 41 -a 1 -x {0.2 1073741824.0 41 ------- null}
r -t 0.5556 -s 0 -d 1 -p cbr -e 210 -c 1 -i 25 -a 1 -x {0.2 1073741824.0 25 ------- null}
- -t 0.5568 -s 0 -d 1 -p cbr -e 210 -c 1 -i 28 -a 1 -x {0.2 1073741824.0 28 ------- null}
h -t 0.5568 -s 0 -d 1 -p cbr -e 210 -c 1 -i 28 -a 1 -x {0.2 1073741824.0 -1 ------- null}
+ -t 0.5575 -s 0 -d 1 -p cbr -e 210 -c 1 -i 42 -a 1 -x {0.2 1073741824.0 42 ------- null}
r -t 0.5612 -s 0 -d 1 -p cbr -e 210 -c 1 -i 26 -a 1 -x {0.2 1073741824.0 26 ------- null}
+ -t 0.56125 -s 0 -d 1 -p cbr -e 210 -c 1 -i 43 -a 1 -x {0.2 1073741824.0 43 ------- null}
- -t 0.5624 -s 0 -d 1 -p cbr -e 210 -c 1 -i 29 -a 1 -x {0.2 1073741824.0 29 ------- null}
h -t 0.5624 -s 0 -d 1 -p cbr -e 210 -c 1 -i 29 -a 1 -x {0.2 1073741824.0 -1 ------- null}
+ -t 0.565 -s 0 -d 1 -p cbr -e 210 -c 1 -i 44 -a 1 -x {0.2 1073741824.0 44 ------- null}
r -t 0.5668 -s 0 -d 1 -p cbr -e 210 -c 1 -i 27 -a 1 -x {0.2 1073741824.0 27 ------- null}
- -t 0.568000000000001 -s 0 -d 1 -p cbr -e 210 -c 1 -i 30 -a 1 -x {0.2 1073741824.0 30 ------- null}
h -t 0.568000000000001 -s 0 -d 1 -p cbr -e 210 -c 1 -i 30 -a 1 -x {0.2 1073741824.0 -1 ------- null}
+ -t 0.56875 -s 0 -d 1 -p cbr -e 210 -c 1 -i 45 -a 1 -x {0.2 1073741824.0 45 ------- null}
r -t 0.5724 -s 0 -d 1 -p cbr -e 210 -c 1 -i 28 -a 1 -x {0.2 1073741824.0 28 ------- null}
+ -t 0.5725 -s 0 -d 1 -p cbr -e 210 -c 1 -i 46 -a 1 -x {0.2 1073741824.0 46 ------- null}
- -t 0.573600000000001 -s 0 -d 1 -p cbr -e 210 -c 1 -i 31 -a 1 -x {0.2 1073741824.0 31 ------- null}
h -t 0.573600000000001 -s 0 -d 1 -p cbr -e 210 -c 1 -i 31 -a 1 -x {0.2 1073741824.0 -1 ------- null}
+ -t 0.57625 -s 0 -d 1 -p cbr -e 210 -c 1 -i 47 -a 1 -x {0.2 1073741824.0 47 ------- null}
r -t 0.578 -s 0 -d 1 -p cbr -e 210 -c 1 -i 29 -a 1 -x {0.2 1073741824.0 29 ------- null}
- -t 0.579200000000001 -s 0 -d 1 -p cbr -e 210 -c 1 -i 32 -a 1 -x {0.2 1073741824.0 32 ------- null}
h -t 0.579200000000001 -s 0 -d 1 -p cbr -e 210 -c 1 -i 32 -a 1 -x {0.2 1073741824.0 -1 ------- null}
+ -t 0.58 -s 0 -d 1 -p cbr -e 210 -c 1 -i 48 -a 1 -x {0.2 1073741824.0 48 ------- null}
r -t 0.5836 -s 0 -d 1 -p cbr -e 210 -c 1 -i 30 -a 1 -x {0.2 1073741824.0 30 ------- null}
+ -t 0.58375 -s 0 -d 1 -p cbr -e 210 -c 1 -i 49 -a 1 -x {0.2 1073741824.0 49 ------- null}
- -t 0.584800000000001 -s 0 -d 1 -p cbr -e 210 -c 1 -i 33 -a 1 -x {0.2 1073741824.0 33 ------- null}
h -t 0.584800000000001 -s 0 -d 1 -p cbr -e 210 -c 1 -i 33 -a 1 -x {0.2 1073741824.0 -1 ------- null}
+ -t 0.5875 -s 0 -d 1 -p cbr -e 210 -c 1 -i 50 -a 1 -x {0.2 1073741824.0 50 ------- null}
r -t 0.589200000000001 -s 0 -d 1 -p cbr -e 210 -c 1 -i 31 -a 1 -x {0.2 1073741824.0 31 ------- null}
- -t 0.590400000000001 -s 0 -d 1 -p cbr -e 210 -c 1 -i 34 -a 1 -x {0.2 1073741824.0 34 ------- null}
h -t 0.590400000000001 -s 0 -d 1 -p cbr -e 210 -c 1 -i 34 -a 1 -x {0.2 1073741824.0 -1 ------- null}
+ -t 0.59125 -s 0 -d 1 -p cbr -e 210 -c 1 -i 51 -a 1 -x {0.2 1073741824.0 51 ------- null}
r -t 0.594800000000001 -s 0 -d 1 -p cbr -e 210 -c 1 -i 32 -a 1 -x {0.2 1073741824.0 32 ------- null}
+ -t 0.595 -s 0 -d 1 -p cbr -e 210 -c 1 -i 52 -a 1 -x {0.2 1073741824.0 52 ------- null}
- -t 0.596000000000001 -s 0 -d 1 -p cbr -e 210 -c 1 -i 35 -a 1 -x {0.2 1073741824.0 35 ------- null}
h -t 0.596000000000001 -s 0 -d 1 -p cbr -e 210 -c 1 -i 35 -a 1 -x {0.2 1073741824.0 -1 ------- null}
+ -t 0.59875 -s 0 -d 1 -p cbr -e 210 -c 1 -i 53 -a 1 -x {0.2 1073741824.0 53 ------- null}
m -t 0.59999999999999998 -s 2 -n m1 -c blue -h circle
v -t 0.6 -e sim_annotation 0.6 0.59999999999999998 2 join-group 1073741824
+ -t 0.6 -s 2 -d 1 -p graft -e 80 -c 3 -i 54 -a 3 -x {2.0 1.0 -1 ------- null}
- -t 0.6 -s 2 -d 1 -p graft -e 80 -c 3 -i 54 -a 3 -x {2.0 1.0 -1 ------- null}
h -t 0.6 -s 2 -d 1 -p graft -e 80 -c 3 -i 54 -a 3 -x {2.0 1.0 -1 ------- null}
r -t 0.600400000000001 -s 0 -d 1 -p cbr -e 210 -c 1 -i 33 -a 1 -x {0.2 1073741824.0 33 ------- null}
- -t 0.601600000000001 -s 0 -d 1 -p cbr -e 210 -c 1 -i 36 -a 1 -x {0.2 1073741824.0 36 ------- null}
h -t 0.601600000000001 -s 0 -d 1 -p cbr -e 210 -c 1 -i 36 -a 1 -x {0.2 1073741824.0 -1 ------- null}
+ -t 0.6025 -s 0 -d 1 -p cbr -e 210 -c 1 -i 55 -a 1 -x {0.2 1073741824.0 54 ------- null}
r -t 0.606000000000001 -s 0 -d 1 -p cbr -e 210 -c 1 -i 34 -a 1 -x {0.2 1073741824.0 34 ------- null}
+ -t 0.60625 -s 0 -d 1 -p cbr -e 210 -c 1 -i 56 -a 1 -x {0.2 1073741824.0 55 ------- null}
- -t 0.607200000000001 -s 0 -d 1 -p cbr -e 210 -c 1 -i 37 -a 1 -x {0.2 1073741824.0 37 ------- null}
h -t 0.607200000000001 -s 0 -d 1 -p cbr -e 210 -c 1 -i 37 -a 1 -x {0.2 1073741824.0 -1 ------- null}
+ -t 0.61 -s 0 -d 1 -p cbr -e 210 -c 1 -i 57 -a 1 -x {0.2 1073741824.0 56 ------- null}
r -t 0.611600000000001 -s 0 -d 1 -p cbr -e 210 -c 1 -i 35 -a 1 -x {0.2 1073741824.0 35 ------- null}
r -t 0.612133333333333 -s 2 -d 1 -p graft -e 80 -c 3 -i 54 -a 3 -x {2.0 1.0 -1 ------- null}
m -t 0.61213333333333331 -s 1 -n m2 -c red -h circle
- -t 0.612800000000001 -s 0 -d 1 -p cbr -e 210 -c 1 -i 38 -a 1 -x {0.2 1073741824.0 38 ------- null}
h -t 0.612800000000001 -s 0 -d 1 -p cbr -e 210 -c 1 -i 38 -a 1 -x {0.2 1073741824.0 -1 ------- null}
+ -t 0.61375 -s 0 -d 1 -p cbr -e 210 -c 1 -i 58 -a 1 -x {0.2 1073741824.0 57 ------- null}
r -t 0.617200000000001 -s 0 -d 1 -p cbr -e 210 -c 1 -i 36 -a 1 -x {0.2 1073741824.0 36 ------- null}
+ -t 0.617200000000001 -s 1 -d 2 -p cbr -e 210 -c 1 -i 36 -a 1 -x {0.2 1073741824.0 36 ------- null}
- -t 0.617200000000001 -s 1 -d 2 -p cbr -e 210 -c 1 -i 36 -a 1 -x {0.2 1073741824.0 36 ------- null}
h -t 0.617200000000001 -s 1 -d 2 -p cbr -e 210 -c 1 -i 36 -a 1 -x {0.2 1073741824.0 -1 ------- null}
+ -t 0.6175 -s 0 -d 1 -p cbr -e 210 -c 1 -i 59 -a 1 -x {0.2 1073741824.0 58 ------- null}
- -t 0.618400000000001 -s 0 -d 1 -p cbr -e 210 -c 1 -i 39 -a 1 -x {0.2 1073741824.0 39 ------- null}
h -t 0.618400000000001 -s 0 -d 1 -p cbr -e 210 -c 1 -i 39 -a 1 -x {0.2 1073741824.0 -1 ------- null}
+ -t 0.62125 -s 0 -d 1 -p cbr -e 210 -c 1 -i 60 -a 1 -x {0.2 1073741824.0 59 ------- null}
r -t 0.622800000000001 -s 0 -d 1 -p cbr -e 210 -c 1 -i 37 -a 1 -x {0.2 1073741824.0 37 ------- null}
+ -t 0.622800000000001 -s 1 -d 2 -p cbr -e 210 -c 1 -i 37 -a 1 -x {0.2 1073741824.0 37 ------- null}
- -t 0.622800000000001 -s 1 -d 2 -p cbr -e 210 -c 1 -i 37 -a 1 -x {0.2 1073741824.0 37 ------- null}
h -t 0.622800000000001 -s 1 -d 2 -p cbr -e 210 -c 1 -i 37 -a 1 -x {0.2 1073741824.0 -1 ------- null}
- -t 0.624000000000001 -s 0 -d 1 -p cbr -e 210 -c 1 -i 40 -a 1 -x {0.2 1073741824.0 40 ------- null}
h -t 0.624000000000001 -s 0 -d 1 -p cbr -e 210 -c 1 -i 40 -a 1 -x {0.2 1073741824.0 -1 ------- null}
+ -t 0.625 -s 0 -d 1 -p cbr -e 210 -c 1 -i 61 -a 1 -x {0.2 1073741824.0 60 ------- null}
r -t 0.628400000000001 -s 0 -d 1 -p cbr -e 210 -c 1 -i 38 -a 1 -x {0.2 1073741824.0 38 ------- null}
+ -t 0.628400000000001 -s 1 -d 2 -p cbr -e 210 -c 1 -i 38 -a 1 -x {0.2 1073741824.0 38 ------- null}
- -t 0.628400000000001 -s 1 -d 2 -p cbr -e 210 -c 1 -i 38 -a 1 -x {0.2 1073741824.0 38 ------- null}
h -t 0.628400000000001 -s 1 -d 2 -p cbr -e 210 -c 1 -i 38 -a 1 -x {0.2 1073741824.0 -1 ------- null}
+ -t 0.62875 -s 0 -d 1 -p cbr -e 210 -c 1 -i 62 -a 1 -x {0.2 1073741824.0 61 ------- null}
- -t 0.629600000000001 -s 0 -d 1 -p cbr -e 210 -c 1 -i 41 -a 1 -x {0.2 1073741824.0 41 ------- null}
h -t 0.629600000000001 -s 0 -d 1 -p cbr -e 210 -c 1 -i 41 -a 1 -x {0.2 1073741824.0 -1 ------- null}
+ -t 0.632500000000001 -s 0 -d 1 -p cbr -e 210 -c 1 -i 63 -a 1 -x {0.2 1073741824.0 62 ------- null}
r -t 0.632800000000001 -s 1 -d 2 -p cbr -e 210 -c 1 -i 36 -a 1 -x {0.2 1073741824.0 36 ------- null}
r -t 0.634000000000001 -s 0 -d 1 -p cbr -e 210 -c 1 -i 39 -a 1 -x {0.2 1073741824.0 39 ------- null}
+ -t 0.634000000000001 -s 1 -d 2 -p cbr -e 210 -c 1 -i 39 -a 1 -x {0.2 1073741824.0 39 ------- null}
- -t 0.634000000000001 -s 1 -d 2 -p cbr -e 210 -c 1 -i 39 -a 1 -x {0.2 1073741824.0 39 ------- null}
h -t 0.634000000000001 -s 1 -d 2 -p cbr -e 210 -c 1 -i 39 -a 1 -x {0.2 1073741824.0 -1 ------- null}
- -t 0.635200000000001 -s 0 -d 1 -p cbr -e 210 -c 1 -i 42 -a 1 -x {0.2 1073741824.0 42 ------- null}
h -t 0.635200000000001 -s 0 -d 1 -p cbr -e 210 -c 1 -i 42 -a 1 -x {0.2 1073741824.0 -1 ------- null}
+ -t 0.636250000000001 -s 0 -d 1 -p cbr -e 210 -c 1 -i 64 -a 1 -x {0.2 1073741824.0 63 ------- null}
r -t 0.638400000000001 -s 1 -d 2 -p cbr -e 210 -c 1 -i 37 -a 1 -x {0.2 1073741824.0 37 ------- null}
r -t 0.639600000000001 -s 0 -d 1 -p cbr -e 210 -c 1 -i 40 -a 1 -x {0.2 1073741824.0 40 ------- null}
+ -t 0.639600000000001 -s 1 -d 2 -p cbr -e 210 -c 1 -i 40 -a 1 -x {0.2 1073741824.0 40 ------- null}
- -t 0.639600000000001 -s 1 -d 2 -p cbr -e 210 -c 1 -i 40 -a 1 -x {0.2 1073741824.0 40 ------- null}
h -t 0.639600000000001 -s 1 -d 2 -p cbr -e 210 -c 1 -i 40 -a 1 -x {0.2 1073741824.0 -1 ------- null}
+ -t 0.640000000000001 -s 0 -d 1 -p cbr -e 210 -c 1 -i 65 -a 1 -x {0.2 1073741824.0 64 ------- null}
- -t 0.640800000000001 -s 0 -d 1 -p cbr -e 210 -c 1 -i 43 -a 1 -x {0.2 1073741824.0 43 ------- null}
h -t 0.640800000000001 -s 0 -d 1 -p cbr -e 210 -c 1 -i 43 -a 1 -x {0.2 1073741824.0 -1 ------- null}
+ -t 0.643750000000001 -s 0 -d 1 -p cbr -e 210 -c 1 -i 66 -a 1 -x {0.2 1073741824.0 65 ------- null}
r -t 0.644000000000001 -s 1 -d 2 -p cbr -e 210 -c 1 -i 38 -a 1 -x {0.2 1073741824.0 38 ------- null}
r -t 0.645200000000001 -s 0 -d 1 -p cbr -e 210 -c 1 -i 41 -a 1 -x {0.2 1073741824.0 41 ------- null}
+ -t 0.645200000000001 -s 1 -d 2 -p cbr -e 210 -c 1 -i 41 -a 1 -x {0.2 1073741824.0 41 ------- null}
- -t 0.645200000000001 -s 1 -d 2 -p cbr -e 210 -c 1 -i 41 -a 1 -x {0.2 1073741824.0 41 ------- null}
h -t 0.645200000000001 -s 1 -d 2 -p cbr -e 210 -c 1 -i 41 -a 1 -x {0.2 1073741824.0 -1 ------- null}
- -t 0.646400000000001 -s 0 -d 1 -p cbr -e 210 -c 1 -i 44 -a 1 -x {0.2 1073741824.0 44 ------- null}
h -t 0.646400000000001 -s 0 -d 1 -p cbr -e 210 -c 1 -i 44 -a 1 -x {0.2 1073741824.0 -1 ------- null}
+ -t 0.647500000000001 -s 0 -d 1 -p cbr -e 210 -c 1 -i 67 -a 1 -x {0.2 1073741824.0 66 ------- null}
r -t 0.649600000000001 -s 1 -d 2 -p cbr -e 210 -c 1 -i 39 -a 1 -x {0.2 1073741824.0 39 ------- null}
r -t 0.650800000000001 -s 0 -d 1 -p cbr -e 210 -c 1 -i 42 -a 1 -x {0.2 1073741824.0 42 ------- null}
+ -t 0.650800000000001 -s 1 -d 2 -p cbr -e 210 -c 1 -i 42 -a 1 -x {0.2 1073741824.0 42 ------- null}
- -t 0.650800000000001 -s 1 -d 2 -p cbr -e 210 -c 1 -i 42 -a 1 -x {0.2 1073741824.0 42 ------- null}
h -t 0.650800000000001 -s 1 -d 2 -p cbr -e 210 -c 1 -i 42 -a 1 -x {0.2 1073741824.0 -1 ------- null}
+ -t 0.651250000000001 -s 0 -d 1 -p cbr -e 210 -c 1 -i 68 -a 1 -x {0.2 1073741824.0 67 ------- null}
- -t 0.652000000000001 -s 0 -d 1 -p cbr -e 210 -c 1 -i 45 -a 1 -x {0.2 1073741824.0 45 ------- null}
h -t 0.652000000000001 -s 0 -d 1 -p cbr -e 210 -c 1 -i 45 -a 1 -x {0.2 1073741824.0 -1 ------- null}
+ -t 0.655000000000001 -s 0 -d 1 -p cbr -e 210 -c 1 -i 69 -a 1 -x {0.2 1073741824.0 68 ------- null}
r -t 0.655200000000001 -s 1 -d 2 -p cbr -e 210 -c 1 -i 40 -a 1 -x {0.2 1073741824.0 40 ------- null}
r -t 0.656400000000001 -s 0 -d 1 -p cbr -e 210 -c 1 -i 43 -a 1 -x {0.2 1073741824.0 43 ------- null}
+ -t 0.656400000000001 -s 1 -d 2 -p cbr -e 210 -c 1 -i 43 -a 1 -x {0.2 1073741824.0 43 ------- null}
- -t 0.656400000000001 -s 1 -d 2 -p cbr -e 210 -c 1 -i 43 -a 1 -x {0.2 1073741824.0 43 ------- null}
h -t 0.656400000000001 -s 1 -d 2 -p cbr -e 210 -c 1 -i 43 -a 1 -x {0.2 1073741824.0 -1 ------- null}
- -t 0.657600000000001 -s 0 -d 1 -p cbr -e 210 -c 1 -i 46 -a 1 -x {0.2 1073741824.0 46 ------- null}
h -t 0.657600000000001 -s 0 -d 1 -p cbr -e 210 -c 1 -i 46 -a 1 -x {0.2 1073741824.0 -1 ------- null}
+ -t 0.658750000000001 -s 0 -d 1 -p cbr -e 210 -c 1 -i 70 -a 1 -x {0.2 1073741824.0 69 ------- null}
r -t 0.660800000000001 -s 1 -d 2 -p cbr -e 210 -c 1 -i 41 -a 1 -x {0.2 1073741824.0 41 ------- null}
r -t 0.662000000000001 -s 0 -d 1 -p cbr -e 210 -c 1 -i 44 -a 1 -x {0.2 1073741824.0 44 ------- null}
+ -t 0.662000000000001 -s 1 -d 2 -p cbr -e 210 -c 1 -i 44 -a 1 -x {0.2 1073741824.0 44 ------- null}
- -t 0.662000000000001 -s 1 -d 2 -p cbr -e 210 -c 1 -i 44 -a 1 -x {0.2 1073741824.0 44 ------- null}
h -t 0.662000000000001 -s 1 -d 2 -p cbr -e 210 -c 1 -i 44 -a 1 -x {0.2 1073741824.0 -1 ------- null}
+ -t 0.662500000000001 -s 0 -d 1 -p cbr -e 210 -c 1 -i 71 -a 1 -x {0.2 1073741824.0 70 ------- null}
- -t 0.663200000000001 -s 0 -d 1 -p cbr -e 210 -c 1 -i 47 -a 1 -x {0.2 1073741824.0 47 ------- null}
h -t 0.663200000000001 -s 0 -d 1 -p cbr -e 210 -c 1 -i 47 -a 1 -x {0.2 1073741824.0 -1 ------- null}
+ -t 0.666250000000001 -s 0 -d 1 -p cbr -e 210 -c 1 -i 72 -a 1 -x {0.2 1073741824.0 71 ------- null}
r -t 0.666400000000001 -s 1 -d 2 -p cbr -e 210 -c 1 -i 42 -a 1 -x {0.2 1073741824.0 42 ------- null}
r -t 0.667600000000001 -s 0 -d 1 -p cbr -e 210 -c 1 -i 45 -a 1 -x {0.2 1073741824.0 45 ------- null}
+ -t 0.667600000000001 -s 1 -d 2 -p cbr -e 210 -c 1 -i 45 -a 1 -x {0.2 1073741824.0 45 ------- null}
- -t 0.667600000000001 -s 1 -d 2 -p cbr -e 210 -c 1 -i 45 -a 1 -x {0.2 1073741824.0 45 ------- null}
h -t 0.667600000000001 -s 1 -d 2 -p cbr -e 210 -c 1 -i 45 -a 1 -x {0.2 1073741824.0 -1 ------- null}
- -t 0.668800000000001 -s 0 -d 1 -p cbr -e 210 -c 1 -i 48 -a 1 -x {0.2 1073741824.0 48 ------- null}
h -t 0.668800000000001 -s 0 -d 1 -p cbr -e 210 -c 1 -i 48 -a 1 -x {0.2 1073741824.0 -1 ------- null}
+ -t 0.670000000000001 -s 0 -d 1 -p cbr -e 210 -c 1 -i 73 -a 1 -x {0.2 1073741824.0 72 ------- null}
r -t 0.672000000000001 -s 1 -d 2 -p cbr -e 210 -c 1 -i 43 -a 1 -x {0.2 1073741824.0 43 ------- null}
r -t 0.673200000000001 -s 0 -d 1 -p cbr -e 210 -c 1 -i 46 -a 1 -x {0.2 1073741824.0 46 ------- null}
+ -t 0.673200000000001 -s 1 -d 2 -p cbr -e 210 -c 1 -i 46 -a 1 -x {0.2 1073741824.0 46 ------- null}
- -t 0.673200000000001 -s 1 -d 2 -p cbr -e 210 -c 1 -i 46 -a 1 -x {0.2 1073741824.0 46 ------- null}
h -t 0.673200000000001 -s 1 -d 2 -p cbr -e 210 -c 1 -i 46 -a 1 -x {0.2 1073741824.0 -1 ------- null}
+ -t 0.673750000000001 -s 0 -d 1 -p cbr -e 210 -c 1 -i 74 -a 1 -x {0.2 1073741824.0 73 ------- null}
- -t 0.674400000000001 -s 0 -d 1 -p cbr -e 210 -c 1 -i 49 -a 1 -x {0.2 1073741824.0 49 ------- null}
h -t 0.674400000000001 -s 0 -d 1 -p cbr -e 210 -c 1 -i 49 -a 1 -x {0.2 1073741824.0 -1 ------- null}
+ -t 0.677500000000001 -s 0 -d 1 -p cbr -e 210 -c 1 -i 75 -a 1 -x {0.2 1073741824.0 74 ------- null}
r -t 0.677600000000001 -s 1 -d 2 -p cbr -e 210 -c 1 -i 44 -a 1 -x {0.2 1073741824.0 44 ------- null}
r -t 0.678800000000001 -s 0 -d 1 -p cbr -e 210 -c 1 -i 47 -a 1 -x {0.2 1073741824.0 47 ------- null}
+ -t 0.678800000000001 -s 1 -d 2 -p cbr -e 210 -c 1 -i 47 -a 1 -x {0.2 1073741824.0 47 ------- null}
- -t 0.678800000000001 -s 1 -d 2 -p cbr -e 210 -c 1 -i 47 -a 1 -x {0.2 1073741824.0 47 ------- null}
h -t 0.678800000000001 -s 1 -d 2 -p cbr -e 210 -c 1 -i 47 -a 1 -x {0.2 1073741824.0 -1 ------- null}
- -t 0.680000000000001 -s 0 -d 1 -p cbr -e 210 -c 1 -i 50 -a 1 -x {0.2 1073741824.0 50 ------- null}
h -t 0.680000000000001 -s 0 -d 1 -p cbr -e 210 -c 1 -i 50 -a 1 -x {0.2 1073741824.0 -1 ------- null}
+ -t 0.681250000000001 -s 0 -d 1 -p cbr -e 210 -c 1 -i 76 -a 1 -x {0.2 1073741824.0 75 ------- null}
r -t 0.683200000000001 -s 1 -d 2 -p cbr -e 210 -c 1 -i 45 -a 1 -x {0.2 1073741824.0 45 ------- null}
r -t 0.684400000000001 -s 0 -d 1 -p cbr -e 210 -c 1 -i 48 -a 1 -x {0.2 1073741824.0 48 ------- null}
+ -t 0.684400000000001 -s 1 -d 2 -p cbr -e 210 -c 1 -i 48 -a 1 -x {0.2 1073741824.0 48 ------- null}
- -t 0.684400000000001 -s 1 -d 2 -p cbr -e 210 -c 1 -i 48 -a 1 -x {0.2 1073741824.0 48 ------- null}
h -t 0.684400000000001 -s 1 -d 2 -p cbr -e 210 -c 1 -i 48 -a 1 -x {0.2 1073741824.0 -1 ------- null}
+ -t 0.685000000000001 -s 0 -d 1 -p cbr -e 210 -c 1 -i 77 -a 1 -x {0.2 1073741824.0 76 ------- null}
- -t 0.685600000000002 -s 0 -d 1 -p cbr -e 210 -c 1 -i 51 -a 1 -x {0.2 1073741824.0 51 ------- null}
h -t 0.685600000000002 -s 0 -d 1 -p cbr -e 210 -c 1 -i 51 -a 1 -x {0.2 1073741824.0 -1 ------- null}
+ -t 0.688750000000001 -s 0 -d 1 -p cbr -e 210 -c 1 -i 78 -a 1 -x {0.2 1073741824.0 77 ------- null}
r -t 0.688800000000001 -s 1 -d 2 -p cbr -e 210 -c 1 -i 46 -a 1 -x {0.2 1073741824.0 46 ------- null}
r -t 0.690000000000001 -s 0 -d 1 -p cbr -e 210 -c 1 -i 49 -a 1 -x {0.2 1073741824.0 49 ------- null}
+ -t 0.690000000000001 -s 1 -d 2 -p cbr -e 210 -c 1 -i 49 -a 1 -x {0.2 1073741824.0 49 ------- null}
- -t 0.690000000000001 -s 1 -d 2 -p cbr -e 210 -c 1 -i 49 -a 1 -x {0.2 1073741824.0 49 ------- null}
h -t 0.690000000000001 -s 1 -d 2 -p cbr -e 210 -c 1 -i 49 -a 1 -x {0.2 1073741824.0 -1 ------- null}
- -t 0.691200000000002 -s 0 -d 1 -p cbr -e 210 -c 1 -i 52 -a 1 -x {0.2 1073741824.0 52 ------- null}
h -t 0.691200000000002 -s 0 -d 1 -p cbr -e 210 -c 1 -i 52 -a 1 -x {0.2 1073741824.0 -1 ------- null}
+ -t 0.692500000000001 -s 0 -d 1 -p cbr -e 210 -c 1 -i 79 -a 1 -x {0.2 1073741824.0 78 ------- null}
r -t 0.694400000000001 -s 1 -d 2 -p cbr -e 210 -c 1 -i 47 -a 1 -x {0.2 1073741824.0 47 ------- null}
r -t 0.695600000000001 -s 0 -d 1 -p cbr -e 210 -c 1 -i 50 -a 1 -x {0.2 1073741824.0 50 ------- null}
+ -t 0.695600000000001 -s 1 -d 2 -p cbr -e 210 -c 1 -i 50 -a 1 -x {0.2 1073741824.0 50 ------- null}
- -t 0.695600000000001 -s 1 -d 2 -p cbr -e 210 -c 1 -i 50 -a 1 -x {0.2 1073741824.0 50 ------- null}
h -t 0.695600000000001 -s 1 -d 2 -p cbr -e 210 -c 1 -i 50 -a 1 -x {0.2 1073741824.0 -1 ------- null}
+ -t 0.696250000000001 -s 0 -d 1 -p cbr -e 210 -c 1 -i 80 -a 1 -x {0.2 1073741824.0 79 ------- null}
- -t 0.696800000000002 -s 0 -d 1 -p cbr -e 210 -c 1 -i 53 -a 1 -x {0.2 1073741824.0 53 ------- null}
h -t 0.696800000000002 -s 0 -d 1 -p cbr -e 210 -c 1 -i 53 -a 1 -x {0.2 1073741824.0 -1 ------- null}
+ -t 0.700000000000001 -s 0 -d 1 -p cbr -e 210 -c 1 -i 81 -a 1 -x {0.2 1073741824.0 80 ------- null}
r -t 0.700000000000001 -s 1 -d 2 -p cbr -e 210 -c 1 -i 48 -a 1 -x {0.2 1073741824.0 48 ------- null}
r -t 0.701200000000001 -s 0 -d 1 -p cbr -e 210 -c 1 -i 51 -a 1 -x {0.2 1073741824.0 51 ------- null}
+ -t 0.701200000000001 -s 1 -d 2 -p cbr -e 210 -c 1 -i 51 -a 1 -x {0.2 1073741824.0 51 ------- null}